! Touchstone file exported from HFSS 2021.2.0
!        File:           D:/20220920 new project/ISC_3rd_design/NewISC_3_with_imtiaz_dim_connector.aedt
!        Generated:      10:32:09 AM  Aug 03, 2023
!        Design:         DUT_51
!        Project:        NewISC_3_with_imtiaz_dim_connector
!        Setup:          Setup2
!        Solution:       Sweep
!
! Variables:
!        $_L_pin_on = 0.01nH
!        $_R_pin_on = 1ohm
!        Con_T = 0.012mm
!        Con_W = 0.11534mm
!        DUT = 30.8024mm
!        Gap = 0.71534mm
!        Gap_connector_vias = 1mm
!        Radius = 0.225mm
!        Space = 0.837mm
!        Sub_L = 9.5988mm
!        Sub_T = 0.05mm
!        Sub_W = 13.8408mm
!        Vias_N = 49
!        Vias_gap = 1mm
!        quater_wave_L = 1.2798mm
!
# GHz S RI R 50.000000
! Terminal data exported
! Port[1] = 1
! Port[2] = 2
0.1                            0.0110065485873167 -0.000583196399677445 0.974030429854928 -0.166046305519856 0.974030429854928 -0.166046305519856 0.00980172102407495 -0.000379806484556579 
! Gamma         0.224301852764248 3.28586400113457 0.223831208003668 3.28144010880813 
! Port Impedance         50               0                50               0                
0.26725                        0.0122405719217713 -0.00303715763768346 0.886161359977248 -0.427710444933764 0.886161359977247 -0.427710444933764 0.0111639034696428 -0.0025967873376882 
! Gamma         0.302729409732422 8.73907438130127 0.301596454195233 8.72793049700149 
! Port Impedance         50               0                50               0                
0.4345                         0.0130642623780172 -0.00689427014584956 0.730999017375419 -0.651510291414786 0.730999017375419 -0.651510291414786 0.0122765596356116 -0.00628979757700054 
! Gamma         0.39494337562816 14.1468464198525 0.393305775402958 14.1291796182176 
! Port Impedance         50               0                50               0                
0.60175                        0.0128713228101953 -0.010331835713931 0.522409978838538 -0.822475527854859 0.522409978838538 -0.822475527854858 0.0124317399890833 -0.00975188750675202 
! Gamma         0.487671289340306 19.5287992724731 0.485428406651421 19.5046541391378 
! Port Impedance         50               0                50               0                
0.769                          0.0138631431161842 -0.0126422746479613 0.277163208448284 -0.929255466199902 0.277163208448284 -0.929255466199902 0.0136954942314671 -0.0122758772672897 
! Gamma         0.577035554551989 24.8928986827376 0.574094725852269 24.8624139810379 
! Port Impedance         50               0                50               0                
0.93625                        0.0171983131734683 -0.0154725347831923 0.0139242625514416 -0.965354384064125 0.0139242625514417 -0.965354384064125 0.0171509882284634 -0.0154309992535013 
! Gamma         0.657979194520748 30.244794947454  0.654315987363923 30.2080864274668 
! Port Impedance         50               0                50               0                
1.1035                         0.0220066747204411 -0.0202417114841264 -0.247768472253377 -0.928935626653748 -0.247768472253378 -0.928935626653748 0.0219037276185695 -0.0205687702573608 
! Gamma         0.729724855306001 35.5901056415937 0.72532909061425 35.5472534510735 
! Port Impedance         50               0                50               0                
1.27075                        0.0275619832564414 -0.0298011788290371 -0.488639506334708 -0.823660968189883 -0.488639506334709 -0.823660968189882 0.027204634272119 -0.0304088731118934 
! Gamma         0.796721472966804 40.9312859422891 0.791591802028587 40.8823782155363 
! Port Impedance         50               0                50               0                
1.438                          0.0299599958902036 -0.044862928796894 -0.691230913783694 -0.657745037668253 -0.691230913783695 -0.657745037668252 0.0292461437201028 -0.0455693911761704 
! Gamma         0.859594823942011 46.2697987886445 0.853734639174368 46.2149026626049 
! Port Impedance         50               0                50               0                
1.60525                        0.0253103623169512 -0.0626157422522347 -0.840423117006878 -0.443950841468453 -0.840423117006877 -0.443950841468452 0.0242465277323818 -0.0632326332504578 
! Gamma         0.919410977057011 51.6063289383196 0.912825169665125 51.5455008953328 
! Port Impedance         50               0                50               0                
1.7725                         0.0125835553311364 -0.0782638293470507 -0.925554699858311 -0.199112965616345 -0.925554699858309 -0.199112965616344 0.0112530733498606 -0.078635174536395 
! Gamma         0.976899828411836 56.9412220416306 0.969593497649173 56.874510846623  
! Port Impedance         50               0                50               0                
1.93975                        -0.00621040269797502 -0.0875186738895168 -0.94147548038803 0.0581499837798217 -0.94147548038803 0.0581499837798218 -0.00766454871254821 -0.0875354377470429 
! Gamma         1.03254728715876 62.2746744061038 1.02452524507933 62.2021230945018 
! Port Impedance         50               0                50               0                
2.107                          -0.0274017404053238 -0.0877981092691139 -0.887966436107199 0.309176722489671 -0.887966436107199 0.309176722489671 -0.0287884803336782 -0.0874285881659996 
! Gamma         1.08667661239499 67.606820211899  1.07794327013702 67.5284674530952 
! Port Impedance         50               0                50               0                
2.27425                        -0.0464094667133779 -0.0781598153402354 -0.769345839877153 0.535899696666595 -0.769345839877153 0.535899696666594 -0.0475366710883259 -0.077485262438035 
! Gamma         1.13950718676452 72.9377691707043 1.13006661105009 72.8536502101579 
! Port Impedance         50               0                50               0                
2.4415                         -0.0578785433660246 -0.0599353824750998 -0.594607186630873 0.721912632405539 -0.594607186630873 0.721912632405539 -0.0586295546813668 -0.0591398230709962 
! Gamma         1.19119349547859 78.2676213337435 1.18104952355979 78.1777686445656 
! Port Impedance         50               0                50               0                
2.60875                        -0.0571395671022858 -0.0378058161409101 -0.376707004990851 0.853960613898601 -0.376707004990852 0.8539606138986  -0.0575229092361153 -0.0371079987903244 
! Gamma         1.24184979460745 83.5964719180187 1.2310061505268  83.5009156524807 
! Port Impedance         50               0                50               0                
2.776                          -0.0427562159935792 -0.0192026958233918 -0.131282028294122 0.922530172187621 -0.131282028294123 0.922530172187621 -0.0428934845250927 -0.0187751084259699 
! Gamma         1.29156526263547 88.9244121440153 1.28002564957557 88.8231804499389 
! Port Impedance         50               0                50               0                
2.94325                        -0.0180401555811093 -0.0117164040568666 0.123922654040285 0.921948558567504 0.123922654040283 0.921948558567505 -0.018110391049173 -0.0116382855881939 
! Gamma         1.34041310985093 94.2515287618256 1.32818127157434 94.1446480102891 
! Port Impedance         50               0                50               0                
3.1105                         0.00958435527731009 -0.0200352751973633 0.369353899353704 0.851297095777866 0.369353899353703 0.851297095777866 0.00940222455312899 -0.0202879635776173 
! Gamma         1.38845596820271 99.5779033800441 1.37553572197073 99.4653983365459 
! Port Impedance         50               0                50               0                
3.27775                        0.0310291771781287 -0.0439436507732481 0.585157338602752 0.715829794684564 0.585157338602752 0.715829794684565 0.0305910573114664 -0.0444258496377291 
! Gamma         1.43574904662951 104.903611997047 1.42214429384089 104.78550595738  
! Port Impedance         50               0                50               0                
3.445                          0.0386797477321159 -0.0782700990992998 0.754015677813305 0.527205264082938 0.754015677813305 0.527205264082937 0.0378983095524496 -0.0788185669083246 
! Gamma         1.48234197383442 110.22872482354  1.46805669531978 110.10503972773  
! Port Impedance         50               0                50               0                
3.61225                        0.0287455940571045 -0.11467499559201 0.863680934357247 0.301717475856135 0.863680934357247 0.301717475856135 0.0276191043032203 -0.115099005595605 
! Gamma         1.52827988780373 115.55330636337  1.51331812986148 115.424062895617 
! Port Impedance         50               0                50               0                
3.7795                         0.00202064342232164 -0.14407267931313 0.907800505031821 0.0576532090748764 0.907800505031821 0.0576532090748759 0.000651542037485159 -0.144207281516805 
! Gamma         1.57360410405195 120.877415682998 1.55796995990849 120.742633362062 
! Port Impedance         50               0                50               0                
3.94675                        -0.0364144420881927 -0.158654125872811 0.88542060214617 -0.18674128400012 0.885420602146168 -0.186741284000119 -0.0378433289004365 -0.158417542331037 
! Gamma         1.61835255503015 126.201106799426 1.60205014498668 126.060804061784 
! Port Impedance         50               0                50               0                
4.114                          -0.077916062360641 -0.153714177041161 0.800187008611693 -0.414569063839016 0.800187008611691 -0.414569063839015 -0.0792043453914061 -0.153138129987495 
! Gamma         1.6625601090759  131.524429128797 1.64559356140704 131.378623405725 
! Port Impedance         50               0                50               0                
4.28125                        -0.111960126584653 -0.129517977285421 0.659293670305684 -0.611246726136059 0.659293670305683 -0.611246726136057 -0.112957403548766 -0.128734455808384 
! Gamma         1.70625882766191 136.847427953098 1.68863226142545 136.696135742205 
! Port Impedance         50               0                50               0                
4.4485                         -0.129215215531968 -0.0920799619482125 0.472171051693048 -0.764639911836011 0.472171051693048 -0.764639911836011 -0.129859628131831 -0.0912834297588648 
! Gamma         1.74947819111486 142.170144876187 1.73119570140138 142.013381807691 
! Port Impedance         50               0                50               0                
4.61575                        -0.124752192583017 -0.0517389120774215 0.250050966392767 -0.864267829454259 0.250050966392767 -0.86426782945426 -0.125071898454878 -0.0511362596537725 
! Gamma         1.79224530703471 147.492618251427 1.77331095277783 147.330399149351 
! Port Impedance         50               0                50               0                
4.783                          -0.0996805649402645 -0.0201031316278595 0.00701453964007792 -0.901149958947098 0.00701453964007831 -0.901149958947098 -0.099803198836112 -0.0198561696650128 
! Gamma         1.83458510715858 152.814883571374 1.81500290138499 152.647222509864 
! Port Impedance         50               0                50               0                
4.95025                        -0.0609143944838224 -0.00676446184846395 -0.239066483002317 -0.869613077543292 -0.239066483002319 -0.869613077543292 -0.0610538761135957 -0.00694690301226585 
! Gamma         1.87652053421824 158.136973815688 1.85629443648935 157.963884170686 
! Port Impedance         50               0                50               0                
5.1175                         -0.0194553324647826 -0.0166694112038859 -0.467670237383959 -0.76999672337699 -0.467670237383961 -0.769996723376991 -0.0198489335729296 -0.0172233875996615 
! Gamma         1.91807271853007 163.458919757161 1.8972066292752  163.28041425369  
! Port Impedance         50               0                50               0                
5.28475                        0.0124055302213527 -0.0486008226172609 -0.658735518966422 -0.61004587072549 -0.658735518966424 -0.61004587072549 0.0115866387434784 -0.0493364036027074 
! Gamma         1.95926114350773 168.78075022807  1.93775889994171 168.596840983445 
! Port Impedance         50               0                50               0                
5.452                          0.0243253869815311 -0.0951928402147046 -0.796000993165681 -0.404122644862189 -0.796000993165681 -0.404122644862189 0.0230486272834222 -0.0958512827409023 
! Gamma         2.00010379934945 174.102492350299 1.97796917268671 173.913190913555 
! Port Impedance         50               0                50               0                
5.61925                        0.0108283074506597 -0.144497477837012 -0.869291947517859 -0.170966737977307 -0.869291947517857 -0.170966737977308 0.00921311182117832 -0.144848632973731 
! Gamma         2.04061732446399 179.424171733212 2.01785401817223 179.229489121091 
! Port Impedance         50               0                50               0                
5.7865                         -0.026691939726025 -0.182905599697546 -0.875550324080674 0.0691684852128826 -0.875550324080676 0.0691684852128817 -0.0284247605583474 -0.182828919639964 
! Gamma         2.08081713456848 184.745812643388 2.05742878344132 184.545759373169 
! Port Impedance         50               0                50               0                
5.95375                        -0.0796612631799215 -0.199114332255176 -0.818451289573938 0.297627590789421 -0.818451289573938 0.29762759078942 -0.0812729648646853 -0.198628504011379 
! Gamma         2.12071753972665 190.067438150098 2.09670770959    189.862024269585 
! Port Impedance         50               0                50               0                
6.121                          -0.134556907864945 -0.187976490579874 -0.706235158825697 0.499818174764459 -0.7062351588257 0.499818174764458 -0.135864164262669 -0.187217021130507 
! Gamma         2.16033184985921 195.389070250101 2.13570403775944 195.178305365039 
! Port Impedance         50               0                50               0                
6.28825                        -0.17724297015951 -0.152235934554632 -0.548529808369763 0.665503085598097 -0.548529808369766 0.665503085598098 -0.17815580010039 -0.151408070611351 
! Gamma         2.19967246944199 200.710729974931 2.17443010419302 200.494623274104 
! Port Impedance         50               0                50               0                
6.4555                         -0.19721165053674 -0.101227549111067 -0.354476995873928 0.786719872744669 -0.354476995873929 0.786719872744671 -0.197742838104151 -0.100558896853976 
! Gamma         2.23875098221913 206.032437483405 2.21289742521106 205.810997761654 
! Port Impedance         50               0                50               0                
6.62275                        -0.189848747114113 -0.047892628722185 -0.133655812404935 0.855564684200936 -0.133655812404936 0.855564684200938 -0.190114928293846 -0.047582745562696 
! Gamma         2.27757822681034 211.354212141704 2.25111677300314 211.127447821076 
! Port Impedance         50               0                50               0                
6.79                           -0.157002969652094 -0.00590314809913316 0.101509586517889 0.864265305997467 0.101509586517888 0.864265305997469 -0.15721290204595 -0.006063709746044 
! Gamma         2.31616436409739 216.676072593002 2.28909824314098 216.443991742215 
! Port Impedance         50               0                50               0                
6.95725                        -0.106957175930342 0.0129952803502835 0.334372578171366 0.807577807863242 0.334372578171368 0.807577807863243 -0.10736071974634 0.0123896753274511 
! Gamma         2.35451893724837 221.998036818296 2.32685131468459 221.760647170696 
! Port Impedance         50               0                50               0                
7.1245                         -0.0535368198063186 0.00212940359215488 0.544882927441443 0.68586569165024 0.544882927441445 0.685865691650241 -0.054338199475029 0.00124634874269866 
! Gamma         2.39265092519012 227.320122189802 2.36438490370363 227.077431159965 
! Port Impedance         50               0                50               0                
7.29175                        -0.0131454958084731 -0.0370003412329428 0.712455417776002 0.507418633314258 0.712455417776003 0.507418633314257 -0.0144242458468168 -0.0379044594592043 
! Gamma         2.43056879027757 232.642345518062 2.40170741097193 232.394360217171 
! Port Impedance         50               0                50               0                
7.459                          0.000462910637266417 -0.0936619838465982 0.820329446611398 0.288815142644078 0.820329446611399 0.288815142644079 -0.00121924292776947 -0.0943326566278506 
! Gamma         2.46828052084137 237.964723093701 2.43882676452346 237.711450343816 
! Port Impedance         50               0                50               0                
7.62625                        -0.0182821820318405 -0.15074630453899 0.859909401276075 0.0521963231196757 0.859909401276075 0.0521963231196771 -0.020172817869064 -0.151015842623178 
! Gamma         2.50579366922578 243.287270724593 2.47575045768725 243.028717071935 
! Port Impedance         50               0                50               0                
7.7935                         -0.0643145732629605 -0.191099090897728 0.832420480490984 -0.180120399569973 0.832420480490985 -0.180120399569973 -0.0661685525214002 -0.190930918087153 
! Gamma         2.54311538586076 248.610003769104 2.51248558314922 248.346175496426 
! Port Impedance         50               0                50               0                
7.96075                        -0.124514323885916 -0.203823794170368 0.746347253261254 -0.390634899104226 0.746347253261256 -0.390634899104223 -0.126109791395511 -0.203310702065349 
! Gamma         2.58025244984905 253.93293716592  2.54903886352437 253.663840304071 
! Port Impedance         50               0                50               0                
8.128                          -0.183331647214187 -0.186743332952102 0.612669874527008 -0.568010576321599 0.612669874527011 -0.568010576321596 -0.184526788365054 -0.186075519597403 
! Gamma         2.61721129648932 259.256085460929 2.58541667886257 258.981725799665 
! Port Impedance         50               0                50               0                
8.29525                        -0.227343122408994 -0.144850741240388 0.441694174708926 -0.704963478076294 0.441694174708932 -0.704963478076293 -0.228113117251168 -0.144264729185098 
! Gamma         2.65399804210385 264.579462831504 2.62162509145741 264.29984592963  
! Port Impedance         50               0                50               0                
8.4625                         -0.247071933852666 -0.087778227655858 0.242831635277591 -0.795710149289801 0.242831635277597 -0.795710149289802 -0.247518700841036 -0.0874912174794988 
! Gamma         2.69061850649129 269.903083108538 2.65766986827933 269.618214303425 
! Port Impedance         50               0                50               0                
8.62975                        -0.237713752204907 -0.0282528362235481 0.0257703688205979 -0.834838803002577 0.0257703688206033 -0.834838803002581 -0.238038729516635 -0.0283987437349127 
! Gamma         2.72707823328326 275.226959796464 2.69355650131194 274.936844213007 
! Port Impedance         50               0                50               0                
8.797                          -0.200391922122608 0.0192574178422029 -0.198244667204513 -0.817248510842565 -0.19824466720451 -0.817248510842567 -0.200838912521361 0.0186673323078735 
! Gamma         2.76338250844694 280.551106091522 2.72929022603342 280.255748650575 
! Port Impedance         50               0                50               0                
8.96425                        -0.143583396479099 0.0411831011497661 -0.414928297495692 -0.738971089107128 -0.414928297495691 -0.738971089107125 -0.144371338934725 0.040265288232794 
! Gamma         2.79953637714368 285.875534898455 2.76487603825281 285.574940324796 
! Port Impedance         50               0                50               0                
9.1315                         -0.0831024921640443 0.0292471789742169 -0.605803854612014 -0.599804107844561 -0.605803854612011 -0.599804107844555 -0.0843636626460667 0.0282193310062437 
! Gamma         2.83554465912655 291.200258845821 2.80031870948327 290.894431675671 
! Port Impedance         50               0                50               0                
9.29875                        -0.0385572247203743 -0.0145561723616284 -0.749778180108947 -0.407692780244493 -0.749778180108942 -0.407692780244489 -0.0402914351690905 -0.0154302979143206 
! Gamma         2.87141196283563 296.525290300058 2.83562280101079 296.214234888202 
! Port Impedance         50               0                50               0                
9.466                          -0.0254925945611551 -0.0762149664875404 -0.829369697881032 -0.181316310010565 -0.829369697881034 -0.181316310010563 -0.0275537538147921 -0.0767053306711439 
! Gamma         2.90714269832978 301.850641378458 2.87079267679616 301.534361904994 
! Port Impedance         50               0                50               0                
9.63325                        -0.0475925587631106 -0.135327927342481 -0.838189426281172 0.0540446298433793 -0.838189426281181 0.0540446298433898 -0.0497280258582731 -0.135321492107882 
! Gamma         2.94274108917601 307.17632396115  2.90583251533083 306.854824437891 
! Port Impedance         50               0                50               0                
9.8005                         -0.0964844948143286 -0.175098516850746 -0.782024093733208 0.275784259126287 -0.78202409373321 0.27578425912631 -0.098425787001062 -0.174642323846266 
! Gamma         2.97821118340275 312.502349702207 2.94074632055222 312.17563397877  
! Port Impedance         50               0                50               0                
9.96775                        -0.158901470847142 -0.187355861817015 -0.672135600406092 0.469723315074225 -0.672135600406089 0.469723315074231 -0.160456623861303 -0.186636543222705 
! Gamma         3.01355686361022 317.828730039974 2.97553793191137 317.496801809572 
! Port Impedance         50               0                50               0                
10.135                         -0.219761827338581 -0.167183735404915 -0.519843616898187 0.623623392561129 -0.519843616898186 0.623623392561131 -0.220911359253876 -0.166353113096806 
! Gamma         3.0487818582803  323.155476202346 3.01021103434981 322.818339009492 
! Port Impedance         50               0                50               0                
10.30225                       -0.263226987504412 -0.119970918310142 -0.338498042207443 0.7324733418113  -0.338498042207441 0.7324733418113  -0.263959469258037 -0.119327521602778 
! Gamma         3.08388974257465 328.48259922898  3.04476916607067 328.140256463337 
! Port Impedance         50               0                50               0                
10.4695                        -0.279364608850012 -0.0582095315435687 -0.137739914456606 0.794442314275211 -0.137739914456606 0.794442314275211 -0.279827939711666 -0.0579573201555561 
! Gamma         3.1188839589741  333.810109959893 3.07921572685927 333.462564873826 
! Port Impedance         50               0                50               0                
10.63675                       -0.264552448896761 0.0035176004562828 0.0739526367260117 0.806395982063259 0.0739526367260109 0.806395982063259 -0.264987440559625 0.003266617642106 
! Gamma         3.15376781635064 339.138019053454 3.11355398567364 338.785274765032 
! Port Impedance         50               0                50               0                
10.804                         -0.221903299631142 0.0502538383604033 0.286533492250966 0.764269146506561 0.286533492250966 0.764269146506563 -0.222586688462274 0.0495247790358606 
! Gamma         3.18854449772409 344.466336993959 3.14778708749856 344.108396489248 
! Port Impedance         50               0                50               0                
10.97125                       -0.161618937056144 0.0693577524091678 0.486205152396441 0.664902495706603 0.486205152396442 0.664902495706604 -0.162786744208202 0.0683211961402978 
! Gamma         3.22321706776773 349.795074096896 3.18191805981321 349.431940233367 
! Port Impedance         50               0                50               0                
11.1385                        -0.100080540296946 0.0543607769963851 0.654973651605948 0.509622975141287 0.654973651605948 0.509622975141287 -0.101852437751213 0.0532983020534579 
! Gamma         3.25778847906805 355.124240514145 3.21594981862083 354.755916024733 
! Port Impedance         50               0                50               0                
11.30575                       -0.0559597538806438 0.00870398781853597 0.773420787453004 0.308093090142789 0.773420787453005 0.308093090142788 -0.05828720753971 0.00793182463585983 
! Gamma         3.2922615776475  360.453846239287 3.24988517407691 360.080333736554 
! Port Impedance         50               0                50               0                
11.473                         -0.0435384972664363 -0.0536736905555335 0.826559373380372 0.0793620094327777 0.826559373380373 0.0793620094327778 -0.0462034778101455 -0.053906976637999 
! Gamma         3.32663910812689 365.783901112832 3.28372683574664 365.405203092903 
! Port Impedance         50               0                50               0                
11.64025                       -0.066646685279599 -0.112921538539341 0.809435161613744 -0.152061407964558 0.809435161613745 -0.152061407964558 -0.0693243107289625 -0.112524477509075 
! Gamma         3.3609237186369  371.114414827158 3.31747741750677 370.730533673387 
! Port Impedance         50               0                50               0                
11.8075                        -0.117383295259611 -0.150999756466255 0.728271673609266 -0.363222857079256 0.728271673609267 -0.363222857079256 -0.119747319218489 -0.150071745534764 
! Gamma         3.39511796546159 376.445396931083 3.35113944136144 376.056334917893 
! Port Impedance         50               0                50               0                
11.97475                       -0.180167253817926 -0.157787010530721 0.596544650540806 -0.53810921988647 0.596544650540806 -0.53810921988647 -0.181992762831951 -0.15658200988987 
! Gamma         3.42922431739579 381.776856834061 3.38471534642155 381.382616126853 
! Port Impedance         50               0                50               0                
12.142                         -0.23778192398214 -0.132798402676299 0.42935300397307 -0.668595270908358 0.429353003973069 -0.668595270908358 -0.239007614207198 -0.131637988063596 
! Gamma         3.4632451598251  387.108803810057 3.41820748283807 386.709386474813 
! Port Impedance         50               0                50               0                
12.30925                       -0.276062219296054 -0.083436738869463 0.239622190698084 -0.751896343693612 0.239622190698084 -0.751896343693612 -0.27679741525834 -0.0826063695862146 
! Gamma         3.49718279855149 392.441247001162 3.45161812637917 392.036655001693 
! Port Impedance         50               0                50               0                
12.4765                        -0.286313540985971 -0.022079700387432 0.0373277331590295 -0.787089724099953 0.0373277331590291 -0.787089724099951 -0.28679284958359 -0.0217477741940409 
! Gamma         3.53103946338775 397.774195420958 3.48494947631724 397.364430623725 
! Port Impedance         50               0                50               0                
12.64375                       -0.26626600129832 0.0366459746308476 -0.168923526054854 -0.772700647120556 -0.168923526054854 -0.772700647120554 -0.266780231284453 0.0364406030609183 
! Gamma         3.56481731154071 403.107657957681 3.51820366000516 402.692722134395 
! Port Impedance         50               0                50               0                
12.811                         -0.220444645995885 0.0783977680377107 -0.369263357377549 -0.706344429542991 -0.369263357377549 -0.70634442954299 -0.221316986649614 0.0776740941175725 
! Gamma         3.59851843079854 408.441643377189 3.55138273604711 408.021538207407 
! Port Impedance         50               0                50               0                
12.97825                       -0.159983107449113 0.092007060240167 -0.550389275555464 -0.586658194988351 -0.550389275555464 -0.586658194988349 -0.161630339992157 0.0907884311314307 
! Gamma         3.63214484253583 413.77616032575  3.58448869728511 413.350887399379 
! Port Impedance         50               0                50               0                
13.1455                        -0.10111361469573 0.0727518511877049 -0.695455549884449 -0.416871419518814 -0.695455549884448 -0.416871419518812 -0.103878871136239 0.0713052082884486 
! Gamma         3.66569850454809 419.111217332659 3.61752347361622 418.680778152376 
! Port Impedance         50               0                50               0                
13.31275                       -0.0618139747493175 0.0251058213932827 -0.787073262082149 -0.208163012308177 -0.787073262082149 -0.208163012308176 -0.0644837642329869 0.0244277307096875 