! Touchstone file exported from HFSS 2021.2.0
!        File:           D:/20220920 new project/ISC_3rd_design/NewISC_3_with_imtiaz_dim_connector.aedt
!        Generated:      1:07:22 AM  Aug 03, 2023
!        Design:         Line1_1
!        Project:        NewISC_3_with_imtiaz_dim_connector
!        Setup:          Setup2
!        Solution:       Sweep
!
! Variables:
!        $_L_pin_on = 0.01nH
!        $_R_pin_on = 1ohm
!        Con_T = 0.012mm
!        Con_W = 0.11534mm
!        DUT = 26.2374mm
!        Gap = 0.71534mm
!        Gap_connector_vias = 1mm
!        L1 = 22.21mm
!        Radius = 0.225mm
!        Space = 0.837mm
!        Sub_L = 9.5988mm
!        Sub_T = 0.05mm
!        Sub_W = 13.8408mm
!        Vias_N = 40
!        Vias_gap = 1.01045128205128mm
!        quater_wave_L = 1.2798mm
!
# GHz S RI R 50.000000
! Terminal data exported
! Port[1] = 1
! Port[2] = 2
0.1                            0.00938224067343738 -0.00101326209993494 0.980456782377851 -0.138189870435598 0.980456782377852 -0.138189870435598 0.00751134144488541 -0.00101392567067195 
! Gamma         0.224790309424615 3.28500343613836 0.224719748928477 3.28468588040035 
! Port Impedance         50               0                50               0                
0.26725                        0.00976879135424661 -0.00403671037152956 0.91891485920248 -0.3594635327847 0.91891485920248 -0.359463532784699 0.00809269317308917 -0.00350871084769579 
! Gamma         0.297739540236344 8.73530770769651 0.298079788589898 8.73373017035306 
! Port Impedance         50               0                50               0                
0.4345                         0.00959647584843036 -0.00784752547705733 0.809063175757592 -0.557859451740167 0.809063175757591 -0.557859451740166 0.00832043895233066 -0.0070421623032863 
! Gamma         0.39345924794716 14.1435138658764 0.394258113194665 14.1405560184593 
! Port Impedance         50               0                50               0                
0.60175                        0.00828054223888577 -0.0111034726499424 0.658106594312303 -0.724433749295891 0.658106594312303 -0.72443374929589 0.00745250859605507 -0.0102423532450294 
! Gamma         0.488613421878595 19.5226759494495 0.489875104491358 19.5182618373672 
! Port Impedance         50               0                50               0                
0.769                          0.00740295810919353 -0.0125877315227476 0.474703996802349 -0.851473775335409 0.47470399680235 -0.851473775335409 0.00695454320263687 -0.0118709873553874 
! Gamma         0.577589109315789 24.8853347232947 0.579348282847269 24.87939963026   
! Port Impedance         50               0                50               0                
0.93625                        0.00845823675347218 -0.0129927642984471 0.268638930676454 -0.933479751948491 0.268638930676453 -0.933479751948491 0.00827705325334722 -0.0125715292988271 
! Gamma         0.658182019687752 30.2363070134881 0.660466525004168 30.2287504739781 
! Port Impedance         50               0                50               0                
1.1035                         0.0120727992125275 -0.0136860178300323 0.0503385072287287 -0.966881311530425 0.0503385072287288 -0.966881311530426 0.0120064417908041 -0.0136615457791041 
! Gamma         0.729986658206948 35.5792131475104 0.732795512641548 35.5699305898192 
! Port Impedance         50               0                50               0                
1.27075                        0.0183242190568113 -0.0168593735175553 -0.16901669262053 -0.950260731814297 -0.16901669262053 -0.950260731814297 0.0181797017835166 -0.0172410154267812 
! Gamma         0.796779469927676 40.9187599207919 0.800103649785966 40.9076866666694 
! Port Impedance         50               0                50               0                
1.438                          0.0256196898090735 -0.0240861351849909 -0.378230103507304 -0.884790003708573 -0.378230103507304 -0.884790003708572 0.0252250437798751 -0.0247925318031124 
! Gamma         0.859430975432899 46.2556742258697 0.863255692348268 46.2427532835764 
! Port Impedance         50               0                50               0                
1.60525                        0.03164184087297 -0.0360841844974513 -0.566593133966109 -0.774074691205811 -0.566593133966109 -0.774074691205811 0.0308783324605127 -0.0369699733681639 
! Gamma         0.919029334959822 51.590630914692  0.923339385767586 51.5758166228106 
! Port Impedance         50               0                50               0                
1.7725                         0.03377223830054 -0.0522458916889524 -0.724414400773454 -0.624133898616303 -0.724414400773453 -0.624133898616303 0.0325927122462474 -0.0531351561503053 
! Gamma         0.9763033688889  56.9239694223064 0.981084727913801 56.9072242396251 
! Port Impedance         50               0                50               0                
1.93975                        0.0298416814970165 -0.0705744350795374 -0.843683484063434 -0.443145744133295 -0.843683484063434 -0.443145744133295 0.028277996057737 -0.0712908058304222 
! Gamma         1.03173555691418 62.2558831924984 1.03697580428225 62.2371753058157 
! Port Impedance         50               0                50               0                
2.107                          0.0188346063132543 -0.0880450748307756 -0.918637803105059 -0.240911630482704 -0.918637803105059 -0.240911630482704 0.0169933841755427 -0.0884428533731127 
! Gamma         1.08564741712132 67.5865048777044 1.09133564847146 67.5658065558606 
! Port Impedance         50               0                50               0                
2.27425                        0.00130741425948203 -0.10129149869976 -0.946070161917301 -0.0281360936100149 -0.946070161917301 -0.0281360936100149 -0.000649219044142446 -0.101284525008061 
! Gamma         1.13825797412056 72.9159430486071 1.14438453185395 72.8932295595905 
! Port Impedance         50               0                50               0                
2.4415                         -0.0205875836220191 -0.107399621126867 -0.925335655694337 0.184294471186674 -0.925335655694337 0.184294471186673 -0.0224744337073696 -0.106980118675733 
! Gamma         1.18972194729234 78.2442967595632 1.1962781332783  78.2195456733495 
! Port Impedance         50               0                50               0                
2.60875                        -0.0434352100258782 -0.104614491349314 -0.858147287591635 0.385897234909016 -0.858147287591636 0.385897234909016 -0.0450823377822343 -0.103855486077454 
! Gamma         1.24015395648661 83.5716603650136 1.24713178924826 83.544851104936  
! Port Impedance         50               0                50               0                
2.776                          -0.0631627726848525 -0.0928468701659904 -0.748278362310935 0.567009657617141 -0.748278362310935 0.567009657617141 -0.0644502672277176 -0.0918868362169488 
! Gamma         1.28964350905699 88.8981243689514 1.29703554097128 88.8692379163772 
! Port Impedance         50               0                50               0                
2.94325                        -0.0758363743200804 -0.0738915831069691 -0.601255716219461 0.719055834143807 -0.601255716219461 0.719055834143808 -0.0767175454313626 -0.0729052928920202 
! Gamma         1.33826408973248 94.2237749353162 1.34606327930364 94.1927936259545 
! Port Impedance         50               0                50               0                
3.1105                         -0.0785236729082429 -0.051273275937337 -0.42411769389371 0.834704015072913 -0.42411769389371 0.834704015072913 -0.0790323005160458 -0.0504360454983039 
! Gamma         1.38607857305688 99.5486931825111 1.39427820052757 99.5156005564503 
! Port Impedance         50               0                50               0                
3.27775                        -0.0700425290729858 -0.0297007771792374 -0.225286630446374 0.908016056105436 -0.225286630446374 0.908016056105436 -0.0702837885891813 -0.0291537733991269 
! Gamma         1.43314239882059 104.872954678696 1.44173601288225 104.837735361919 
! Port Impedance         50               0                50               0                
3.445                          -0.051422879938703 -0.0142070014401385 -0.0145035056618287 0.934724145468921 -0.0145035056618289 0.934724145468921 -0.0515503898686026 -0.014029916436453 
! Gamma         1.47950542184875 110.196629236895 1.48848680715577 110.15926884176  
! Port Impedance         50               0                50               0                
3.61225                        -0.0259574023965967 -0.00911224023242441 0.197342689381022 0.912692769384368 0.197342689381022 0.912692769384368 -0.0261405648342913 -0.00930695412136346 
! Gamma         1.52521299857351 115.51978097953  1.53457615630068 115.480266017508 
! Port Impedance         50               0                50               0                
3.7795                         0.00123726028503456 -0.016988842760312 0.398674907404464 0.842467057913481 0.398674907404464 0.842467057913481 0.000842362303572847 -0.0174738657385224 
! Gamma         1.57030664832031 120.84246860103  1.58004578433255 120.800786404213 
! Port Impedance         50               0                50               0                
3.94675                        0.0241260451884073 -0.0378812578738782 0.578053715947842 0.727680014725308 0.578053715947842 0.727680014725307 0.0234019320942031 -0.0385312978312116 
! Gamma         1.61482448622919 126.164745755023 1.62493400329068 126.120884404703 
! Port Impedance         50               0                50               0                
4.114                          0.0370607131978365 -0.0690541045789302 0.725260026454627 0.575066978469879 0.725260026454626 0.575066978469878 0.0359800612801504 -0.0697120768133918 
! Gamma         1.65880153837422 131.486661505268 1.66927603018652 131.440609766712 
! Port Impedance         50               0                50               0                
4.28125                        0.0360869148358935 -0.105354765883686 0.832372645033531 0.393940310759882 0.83237264503353 0.393940310759881 0.0346946177718769 -0.105859941584447 
! Gamma         1.70226999823251 136.808260795523 1.71310424403204 136.760008058476 
! Port Impedance         50               0                50               0                
4.4485                         0.0199173367998516 -0.140260546826734 0.894512700134679 0.195190459304843 0.894512700134679 0.195190459304844 0.0183217142877179 -0.14049086968137 
! Gamma         1.74525945406961 142.129584908299 1.75644841312993 142.079121132854 
! Port Impedance         50               0                50               0                
4.61575                        -0.00971128438524457 -0.167263942982457 0.910026542220389 -0.00992795468696091 0.910026542220388 -0.00992795468695806 -0.0113612191038301 -0.167160469809077 
! Gamma         1.78779710050967 147.450671894201 1.79933590627557 147.397987561743 
! Port Impedance         50               0                50               0                
4.783                          -0.048396522541217 -0.181224687699715 0.880092073230254 -0.210868383121591 0.880092073230253 -0.21086838312159 -0.0499428473395566 -0.180801667983732 
! Gamma         1.82990793911562 152.771556962264 1.84179189291712 152.716643031128 
! Port Impedance         50               0                50               0                
4.95025                        -0.0899788813359973 -0.179344495438986 0.807955802560142 -0.398435942548933 0.807955802560142 -0.398435942548931 -0.0912871959642732 -0.178684332301644 
! Gamma         1.87161496883823 158.092272827594 1.88383953324909 158.035120693105 
! Port Impedance         50               0                50               0                
5.1175                         -0.127698017471985 -0.161599309162892 0.6981331863106  -0.564911767223831 0.6981331863106  -0.564911767223828 -0.128683966932881 -0.160834445803078 
! Gamma         1.91293936565818 163.412850016518 1.92550015761505 163.353451475035 
! Port Impedance         50               0                50               0                
5.28475                        -0.155311285839941 -0.130675665052117 0.555870003298982 -0.703792307837234 0.555870003298982 -0.703792307837234 -0.15595667103388 -0.129961470205643 
! Gamma         1.95390065043845 168.733317131691 1.96679343424928 168.671664348287 
! Port Impedance         50               0                50               0                
5.452                          -0.168036062320057 -0.0915711108482999 0.386996491433152 -0.809410771427755 0.386996491433156 -0.809410771427756 -0.168392096897697 -0.0910548265971244 
! Gamma         1.99451684424431 174.053701080832 2.00773752460692 173.989786560258 
! Port Impedance         50               0                50               0                
5.61925                        -0.163323482330044 -0.0509723983870011 0.198124952821859 -0.876695653345213 0.198124952821859 -0.876695653345212 -0.1635007641245 -0.0507636044802802 
! Gamma         2.03480461080911 179.374027273235 2.04834922594218 179.307843833821 
! Port Impedance         50               0                50               0                
5.7865                         -0.141487775698428 -0.0163960862839348 -0.00295660465896459 -0.901234215280541 -0.00295660465896363 -0.901234215280539 -0.141634594937432 -0.0165439280020279 
! Gamma         2.07477938624394 184.694319788227 2.08864410121182 184.625860538407 
! Port Impedance         50               0                50               0                
5.95375                        -0.106095836384792 0.00499036669781545 -0.206888916593202 -0.879743867299984 -0.206888916593201 -0.879743867299983 -0.106368286165819 0.00450886138085507 
! Gamma         2.1144554964318  190.014601519517 2.12863659672275 189.943859836702 
! Port Impedance         50               0                50               0                
6.121                          -0.0638650273867971 0.00786628120106113 -0.402623714685332 -0.810983930181529 -0.402623714685331 -0.810983930181529 -0.0643937868787393 0.00714380808335124 
! Gamma         2.15384626278925 195.334894299018 2.16834014818811 195.261863810529 
! Port Impedance         50               0                50               0                
6.28825                        -0.023747268852442 -0.00966702619354534 -0.577953940972496 -0.696938160205414 -0.577953940972496 -0.696938160205414 -0.0246072744916101 -0.0104859087053785 
! Gamma         2.19296409722672 200.655219003271 2.20776727600681 200.57989356913  
! Port Impedance         50               0                50               0                
6.4555                         0.00495671288070113 -0.0450042221595585 -0.720949727736575 -0.54374738425981 -0.720949727736575 -0.54374738425981 0.00376596844560138 -0.0457550786119591 
! Gamma         2.23182058720967 205.975595645207 2.24692967065557 205.897969342557 
! Port Impedance         50               0                50               0                
6.62275                        0.0150964722532905 -0.091185203111241 -0.822062315680573 -0.361640753260421 -0.822062315680573 -0.361640753260421 0.0136521845317627 -0.0917233851778713 
! Gamma         2.27042657183497 211.296043453555 2.28583826909784 211.216110562535 
! Port Impedance         50               0                50               0                
6.79                           0.00378461967389528 -0.138629217464173 -0.875985885373197 -0.163440226704326 -0.875985885373198 -0.163440226704326 0.00222058674424747 -0.138864889196049 
! Gamma         2.30879220980925 216.616580941853 2.32450332308871 216.534335932763 
! Port Impedance         50               0                50               0                
6.95725                        -0.0269884502683574 -0.177848095412837 -0.882198669208052 0.0378571388643524 -0.882198669208052 0.0378571388643537 -0.0285159483344238 -0.177764525825291 
! Gamma         2.34692704016286 221.93722596869  2.36293446020383 221.852663490301 
! Port Impedance         50               0                50               0                
7.1245                         -0.0714912702225291 -0.201779059587311 -0.8438979624588 0.231149324276137 -0.843897962458799 0.231149324276138 -0.0728387541646531 -0.201431760734121 
! Gamma         2.38484003646624 227.257995790551 2.40114073835524 227.171110659435 
! Port Impedance         50               0                50               0                
7.29175                        -0.122207842573427 -0.206726069113379 -0.76618682983775 0.407972320209921 -0.76618682983775 0.407972320209923 -0.123273401797981 -0.206228091241104 
! Gamma         2.42253965524268 232.578907108381 2.43913069448591 232.489694299151 
! Port Impedance         50               0                50               0                
7.459                          -0.171383382249516 -0.19208611998651 -0.65469015149894 0.562046581819272 -0.654690151498939 0.562046581819272 -0.172126152012462 -0.191583889522536 
! Gamma         2.46003387919924 237.899976108826 2.47691238806287 237.808430745181 
! Port Impedance         50               0                50               0                
7.62625                        -0.211747872802967 -0.159805636869491 -0.515044961944262 0.688489951335183 -0.515044961944262 0.688489951335183 -0.212195311464871 -0.159449344946149 
! Gamma         2.49733025582829 243.221218500916 2.51449343992124 243.127335847413 
! Port Impedance         50               0                50               0                
7.7935                         -0.236921836359567 -0.114196977028956 -0.352900067896784 0.783294794752529 -0.352900067896784 0.783294794752529 -0.237163595463092 -0.114111721856746 
! Gamma         2.53443593186903 248.542649548851 2.55188106694813 248.446425003316 
! Port Impedance         50               0                50               0                
7.96075                        -0.242124925316576 -0.0619555972726818 -0.17400521819126 0.843016926276692 -0.174005218191261 0.843016926276693 -0.242296044906637 -0.0622191919832209 
! Gamma         2.57135768406127 253.864284101422 2.58908211303927 253.765713187942 
! Port Impedance         50               0                50               0                
8.128                          -0.225306445101198 -0.0118347268786844 0.0155643081296177 0.864447977579753 0.0155643081296166 0.864447977579753 -0.225564856105239 -0.0124649337079487 
! Gamma         2.60810194657368 259.186136618534 2.62610307671124 259.085214980955 
! Port Impedance         50               0                50               0                
8.29525                        -0.18837050339747 0.0264313106478339 0.208765340138883 0.844428832838345 0.208765340138882 0.844428832838347 -0.188873164457425 0.0254804739005237 
! Gamma         2.64467483544497 264.508221195196 2.66295013570864 264.40494459109  
! Port Impedance         50               0                50               0                
8.4625                         -0.137963195654658 0.0441224797056697 0.396584606458175 0.780371711788677 0.396584606458174 0.780371711788678 -0.138843272260799 0.0429569286342547 
! Gamma         2.68108217033837 269.83055158332  2.69962916890769 269.724915878358 
! Port Impedance         50               0                50               0                
8.62975                        -0.0850450166854219 0.0363165326552871 0.567453066880877 0.67195089004464 0.567453066880877 0.671950890044641 -0.0863909915190388 0.0350921733740538 
! Gamma         2.71732949387751 275.153141211584 2.7361457757855  275.045142374286 
! Port Impedance         50               0                50               0                
8.797                          -0.0423465805958498 0.00450847879855419 0.708353066140819 0.523463368810624 0.708353066140819 0.523463368810625 -0.0441828284301278 0.00341537632934302 
! Gamma         2.75342208880345 280.476003203618 2.77250529369577 280.36563730042  
! Port Impedance         50               0                50               0                
8.96425                        -0.0198893587179415 -0.0430410599886619 0.808083916758093 0.344906785409773 0.808083916758092 0.344906785409773 -0.022158046934518 -0.0438041610197965 
! Gamma         2.78936499316842 285.799150394679 2.80871281316784 285.686413585312 
! Port Impedance         50               0                50               0                
9.1315                         -0.0212778854055312 -0.0946938301420073 0.860683190247925 0.149893084958522 0.860683190247923 0.14989308495852 -0.0238309513077879 -0.0949613179037926 
! Gamma         2.82516301376081 291.122595347023 2.84477319142475 291.00748388015  
! Port Impedance         50               0                50               0                
9.29875                        -0.044019546834697 -0.140333535902523 0.865848488995369 -0.048344367855746 0.865848488995363 -0.0483443678557481 -0.0466406688282169 -0.140023571532097 
! Gamma         2.86082073793783 296.446350364098 2.88069106429778 296.328860573194 
! Port Impedance         50               0                50               0                
9.466                          -0.0829873790936329 -0.173462897250546 0.82637918310341 -0.239141372707502 0.826379183103402 -0.239141372707501 -0.0854485315184267 -0.172605917750361 
! Gamma         2.89634254402607 301.770427503699 2.91647085669868 301.65055580315  
! Port Impedance         50               0                50               0                
9.63325                        -0.132767806605814 -0.189880639761324 0.746000256432997 -0.413636578113045 0.746000256432992 -0.413636578113041 -0.134890949862483 -0.188603685077305 
! Gamma         2.93173261043585 307.094838590201 2.95211679179679 306.97258147159  
! Port Impedance         50               0                50               0                
9.8005                         -0.187196452268465 -0.186299739407276 0.629406789035157 -0.563446300474918 0.629406789035154 -0.563446300474916 -0.188887714273711 -0.184780624545958 
! Gamma         2.96699492362283 312.419595225948 2.98763289903525 312.29494925453  
! Port Impedance         50               0                50               0                
9.96775                        -0.238227181493938 -0.161131299931518 0.483236953916405 -0.680729513755396 0.483236953916405 -0.680729513755393 -0.239478320265055 -0.159551053624142 
! Gamma         3.00213328501874 317.744708801917 3.02302302110904 317.617670613244 
! Port Impedance         50               0                50               0                
10.135                         -0.272336727374214 -0.116237605572427 0.32300921991719 -0.764776428717404 0.323009219917204 -0.764776428717411 -0.273144777686253 -0.114726524417876 
! Gamma         3.03715174817409 323.070190468354 3.05829125562418 322.940756773555 
! Port Impedance         50               0                50               0                
10.30225                       -0.284910537789874 -0.0617775740614678 0.151451701445222 -0.816063511297762 0.15145170144523 -0.816063511297772 -0.285348592076719 -0.0604729234028467 
! Gamma         3.07205379468574 328.396051214745 3.09344112214984 328.264218788951 
! Port Impedance         50               0                50               0                
10.4695                        -0.275093856220533 -0.00709734344722108 -0.0282405376271493 -0.832349163331931 -0.0282405376271492 -0.832349163331931 -0.275281506227159 -0.00609290732685697 
! Gamma         3.1068427824541  333.722301840716 3.12847601588741 333.588067521449 
! Port Impedance         50               0                50               0                
10.63675                       -0.244401508795064 0.0389278944202376 -0.2106141355002 -0.811147540006555 -0.210614135500198 -0.811147540006547 -0.244474391440066 0.0395910492959024 
! Gamma         3.14152201055991 339.048952958784 3.16339927256166 338.91231364491  
! Port Impedance         50               0                50               0                
10.804                         -0.19759114676252 0.0682268813554483 -0.388404232059208 -0.750009061785098 -0.388404232059204 -0.750009061785092 -0.197689192998716 0.0685627371475808 
! Gamma         3.17609465332685 344.376015007424 3.19821410185558 344.236967656842 
! Port Impedance         50               0                50               0                
10.97125                       -0.142738709502677 0.0747863932073012 -0.552062837091741 -0.647892409275318 -0.552062837091742 -0.647892409275319 -0.142989780066488 0.0748701419358306 
! Gamma         3.21056376675169 349.703498257256 3.23292359396255 349.562039884765 
! Port Impedance         50               0                50               0                
11.1385                        -0.0905215279215474 0.0564258666244672 -0.690187442971625 -0.50689461889637 -0.690187442971639 -0.506894618896369 -0.0910133173327988 0.056392492136351 
! Gamma         3.24493229453519 355.031412816825 3.26753072569564 354.887540492164 
! Port Impedance         50               0                50               0                
11.30575                       -0.0521685972461216 0.0162865109430645 -0.791209933219256 -0.333713579102723 -0.791209933219276 -0.333713579102711 -0.0529162306700709 0.0163041030541131 
! Gamma         3.27920307373291 360.359768638015 3.30203836619198 360.213479484026 
! Port Impedance         50               0                50               0                
11.473                         -0.0364151325427059 -0.0371166699132817 -0.846072685622424 -0.139819609393166 -0.846072685622435 -0.139819609393144 -0.0373484358767713 -0.0369082580789605 
! Gamma         3.31337884004673 365.688575521106 3.33644928224556 365.539866712013 
! Port Impedance         50               0                50               0                
11.64025                       -0.0467765218485567 -0.091861148810198 -0.850695759745803 0.0602528024924587 -0.850695759745802 0.0602528024924765 -0.0477777818297104 -0.0914297589561655 
! Gamma         3.34746223277963 371.017843119491 3.37076614329808 370.866711879281 
! Port Impedance         50               0                50               0                
11.8075                        -0.0805572951252038 -0.135902539149236 -0.806874590801818 0.251879873621991 -0.806874590801814 0.251879873621996 -0.0815632497460574 -0.135356111170688 
! Gamma         3.38145579947643 376.347580944082 3.40499152611473 376.194024544973 
! Port Impedance         50               0                50               0                
11.97475                       -0.129934376621732 -0.160203012482958 -0.721214798441258 0.423160718059706 -0.721214798441262 0.423160718059703 -0.131027633068838 -0.159664802566864 
! Gamma         3.41536200027317 381.677798367422 3.43912791916882 381.521814128416 
! Port Impedance         50               0                50               0                
12.142                         -0.184385414079334 -0.160663071561693 -0.602771234503481 0.566449681103971 -0.602771234503493 0.566449681103971 -0.185654624461133 -0.160051930908858 
! Gamma         3.44918321197696 387.008504627512 3.47317772675717 386.850089913033 
! Port Impedance         50               0                50               0                
12.30925                       -0.233566795442228 -0.138407518814595 -0.460432915306869 0.678115681089312 -0.460432915306883 0.678115681089318 -0.234821327640599 -0.137563060461647 
! Gamma         3.48292173189659 392.339708831398 3.50714327286605 392.178861050004 
! Port Impedance         50               0                50               0                
12.4765                        -0.269486937935277 -0.0983984724982622 -0.301438236909659 0.756776703921846 -0.301438236909668 0.756776703921857 -0.270424976565896 -0.0974273392719839 
! Gamma         3.51657978144287 397.671419958515 3.54102680480581 397.50813656168  
! Port Impedance         50               0                50               0                
12.64375                       -0.287306212391624 -0.047642180196202 -0.131617764362681 0.801563045762913 -0.131617764362684 0.80156304576292 -0.287846464072792 -0.0468208282869336 
! Gamma         3.55015950951578 403.003646863812 3.57483049663088 402.837925344791 
! Port Impedance         50               0                50               0                
12.811                         -0.286987291346736 0.00559455819469057 0.0437711427999517 0.810938590323774 0.0437711427999514 0.810938590323775 -0.287158812234364 0.00612410131889837 
! Gamma         3.58366299569411 408.336398280687 3.60855645236014 408.168236173435 
! Port Impedance         50               0                50               0                
12.97825                       -0.251633436605076 0.0372899769016889 0.224423466463963 0.787851222135665 0.224423466463962 0.787851222135662 -0.249303628772304 0.036687648390488 
! Gamma         3.61709225324144 413.669682823725 3.64220670901193 413.49907770189  
! Port Impedance         50               0                50               0                
13.1455                        -0.211621781623566 0.0814243325441582 0.391316765727859 0.724930588419487 0.391316765727854 0.724930588419483 -0.211412907068114 0.0818625190585032 
! Gamma         3.65044923194147 419.00350899128  3.67578323946631 418.830458467252 
! Port Impedance         50               0                50               0                