! Touchstone file exported from HFSS 2021.2.0
!        File:           D:/20220920 new project/ISC_3rd_design/NewISC_3_with_imtiaz_dim_connector.aedt
!        Generated:      1:07:51 AM  Aug 03, 2023
!        Design:         Line2_1
!        Project:        NewISC_3_with_imtiaz_dim_connector
!        Setup:          Setup2
!        Solution:       Sweep
!
! Variables:
!        $_L_pin_on = 0.01nH
!        $_R_pin_on = 1ohm
!        Con_T = 0.012mm
!        Con_W = 0.11534mm
!        DUT = 26.2374mm
!        Gap = 0.71534mm
!        Gap_connector_vias = 1mm
!        L2 = 1.21mm
!        Radius = 0.225mm
!        Space = 0.837mm
!        Sub_L = 9.5988mm
!        Sub_T = 0.05mm
!        Sub_W = 13.8408mm
!        Vias_N = 19
!        Vias_gap = 1.02264444444444mm
!        quater_wave_L = 1.2798mm
!
# GHz S RI R 50.000000
! Terminal data exported
! Port[1] = 1
! Port[2] = 2
0.1                            0.00375258878086879 -0.00259482669117622 0.99280870698552 -0.0690924241018244 0.99280870698552 -0.0690924241018244 0.00398895927896736 -0.00211685946761024 
! Gamma         0.226147424884003 3.28928813760529 0.226030720582065 3.28917750593952 
! Port Impedance         50               0                50               0                
0.26725                        0.00329414566243652 -0.00693815805720474 0.97653669306914 -0.182808036805713 0.976536693069139 -0.182808036805716 0.00371682993664887 -0.00680485333082487 
! Gamma         0.300303399293075 8.74555200372427 0.299866037589234 8.74568457009565 
! Port Impedance         50               0                50               0                
0.4345                         0.00215441476481869 -0.0116598308001051 0.947319479276258 -0.292577601467815 0.947319479276256 -0.292577601467817 0.00256291693424526 -0.0116245733933902 
! Gamma         0.397446523445549 14.1589919267712 0.396645802233495 14.1595019437053 
! Port Impedance         50               0                50               0                
0.60175                        -5.59176559292302E-05 -0.0162984808698152 0.906053657841669 -0.397563883069115 0.906053657841668 -0.397563883069114 0.000340566763126091 -0.0163296687564518 
! Gamma         0.493839527595641 19.5429083856024 0.492683751919494 19.5438738419349 
! Port Impedance         50               0                50               0                
0.769                          -0.00330202714808117 -0.0202427657478898 0.853445528032632 -0.496666168185802 0.853445528032634 -0.496666168185802 -0.00292759335063302 -0.0203338449847037 
! Gamma         0.583841729349263 24.910113181931  0.582324549572105 24.9115914978636 
! Port Impedance         50               0                50               0                
0.93625                        -0.00721988107450968 -0.0230184585221863 0.790367073157212 -0.588851274759483 0.790367073157213 -0.588851274759484 -0.00688397994989641 -0.0231553163709294 
! Gamma         0.665305797595396 30.265540540086  0.663427832991647 30.2676077790867 
! Port Impedance         50               0                50               0                
1.1035                         -0.0120510686589528 -0.0253137957803576 0.717217422968601 -0.673685977759048 0.717217422968601 -0.67368597775905 -0.0115370404712055 -0.0254540741412862 
! Gamma         0.734592433409056 35.6027141026122 0.732338894042723 35.6055127592787 
! Port Impedance         50               0                50               0                
1.27075                        -0.0172958715413731 -0.0259434615502585 0.634917859415137 -0.749414737664989 0.634917859415136 -0.74941473766499 -0.0166116787494972 -0.0261991980788281 
! Gamma         0.799111722606528 40.9396393786346 0.796521005065557 40.9431842369421 
! Port Impedance         50               0                50               0                
1.438                          -0.0216445431335741 -0.0243924254856571 0.545065979741268 -0.814882692953538 0.545065979741266 -0.814882692953539 -0.0209660271181781 -0.0248070086202999 
! Gamma         0.861391497339875 46.2800806474874 0.858509417641599 46.2843628444206 
! Port Impedance         50               0                50               0                
1.60525                        -0.0243358906824801 -0.0212048776001311 0.448963525560696 -0.869580242107262 0.448963525560694 -0.869580242107262 -0.023794761912551 -0.0217311358227754 
! Gamma         0.921765371905237 51.6212607398031 0.918620227257568 51.6262876455827 
! Port Impedance         50               0                50               0                
1.7725                         -0.02489882470086 -0.0171058632480858 0.347814173873042 -0.913121901494706 0.34781417387304 -0.913121901494705 -0.0245643757436933 -0.0176501135781728 
! Gamma         0.980447481392432 56.9617537482243 0.977058053489109 56.9675388751761 
! Port Impedance         50               0                50               0                
1.93975                        -0.0231504366144038 -0.0128783088026881 0.242760597512059 -0.945173833083526 0.242760597512057 -0.945173833083525 -0.0230297609946871 -0.0133369262303019 
! Gamma         1.03757685187207 62.3008819204327 1.03395692239415 62.3074404193712 
! Port Impedance         50               0                50               0                
2.107                          -0.019159748162419 -0.00927153347462086 0.134942505258641 -0.965424740414677 0.13494250525864 -0.965424740414677 -0.019209861426554 -0.00955767266367858 
! Gamma         1.09325437552249 67.638383269287  1.08941514312026 67.6457299279571 
! Port Impedance         50               0                50               0                
2.27425                        -0.0131964468355978 -0.00694129025097963 0.0255510370618595 -0.973596823280262 0.0255510370618581 -0.973596823280262 -0.0133427585535107 -0.00700074322181438 
! Gamma         1.14756589209703 72.9742229223403 1.14351720794123 72.9823713186814 
! Port Impedance         50               0                50               0                
2.4415                         -0.0056771513316384 -0.00641587260060645 -0.0841371611316815 -0.969484900591318 -0.0841371611316828 -0.969484900591318 -0.005833448907831 -0.00623239901902421 
! Gamma         1.20059383554517 78.3084843499667 1.19634480110352 78.3174465535738 
! Port Impedance         50               0                50               0                
2.60875                        0.00288388677043053 -0.00808142830069529 -0.1927540827851 -0.953008000756431 -0.192754082785101 -0.95300800075643 0.0027979690670463 -0.00767322124322107 
! Gamma         1.25242152120231 83.6413065280716 1.24798075481253 83.6510930652792 
! Port Impedance         50               0                50               0                
2.776                          0.0119165878857778 -0.0121801972965834 -0.298862278177534 -0.924257910134552 -0.298862278177536 -0.924257910134552 0.0119634625687341 -0.0115902894206225 
! Gamma         1.30313343614414 88.9728481263121 1.29850917596064 88.9834680694356 
! Port Impedance         50               0                50               0                
2.94325                        0.0208285804253306 -0.0188166245289724 -0.400997414629589 -0.883532741654111 -0.40099741462959 -0.883532741654111 0.0210472424133219 -0.018100685061222 
! Gamma         1.35281376905655 94.3032677813264 1.34801390138497 94.3147288911134 
! Port Impedance         50               0                50               0                
3.1105                         0.029030914892735 -0.0279674804861292 -0.497720558048297 -0.831349442457636 -0.497720558048298 -0.831349442457636 0.0294377130077304 -0.0271823417546929 
! Gamma         1.40154447691211 99.6327139469368 1.39657653550637 99.6450228313523 
! Port Impedance         50               0                50               0                
3.27775                        0.0359571293007869 -0.0394930101457037 -0.587669014070479 -0.768435579306893 -0.58766901407048 -0.768435579306893 0.036551000899596 -0.0386883896572828 
! Gamma         1.44940354333519 104.961320381916 1.44427470168466 104.974482652204 
! Port Impedance         50               0                50               0                
3.445                          0.0410774878197165 -0.0531468645931388 -0.669597510394966 -0.695705814301403 -0.669597510394968 -0.695705814301404 0.0418471955752161 -0.0523614075124117 
! Gamma         1.49646369242699 110.289204872036 1.4911807586175  110.303225286688 
! Port Impedance         50               0                50               0                
3.61225                        0.0439108795274869 -0.0685834823098438 -0.742406244859397 -0.614230837985373 -0.742406244859398 -0.614230837985373 0.0448418816989876 -0.0678448886400349 
! Gamma         1.54279160678778 115.616469721784 1.53736102419273 115.631352314435 
! Port Impedance         50               0                50               0                
3.7795                         0.0440372869892034 -0.0853629194436821 -0.805157006488904 -0.525205854467289 -0.805157006488905 -0.525205854467289 0.0451165676674296 -0.0846909344352939 
! Gamma         1.58844759447014 120.943203131874 1.58287544851507 120.958951322144 
! Port Impedance         50               0                50               0                
3.94675                        0.0411134896069186 -0.102954792967698 -0.857081607388287 -0.42992280365388 -0.85708160738829 -0.429922803653881 0.0423316358476412 -0.102365419231991 
! Gamma         1.63348561007639 126.269480939647 1.62777764005753 126.286097627558 
! Port Impedance         50               0                50               0                
4.114                          0.0348934609521355 -0.120744546159361 -0.897587470984305 -0.329746816679499 -0.897587470984307 -0.329746816679499 0.0362441663880245 -0.120253948024222 
! Gamma         1.67795353003392 131.595368423314 1.67211514459569 131.612856068744 
! Port Impedance         50               0                50               0                
4.28125                        0.0252528320137288 -0.138046037752025 -0.926263605630718 -0.226094440983989 -0.926263605630719 -0.226094440983989 0.0267306164161198 -0.137673073306081 
! Gamma         1.72189359307664 136.920922008711 1.71592988799607 136.939282697651 
! Port Impedance         50               0                50               0                
4.4485                         0.01221433615544 -0.154123971180171 -0.942887304745996 -0.120409983356386 -0.942887304745998 -0.120409983356386 0.0138115283047237 -0.153890887434401 
! Gamma         1.76534293388345 142.246190800578 1.75925871102296 142.265426300046 
! Port Impedance         50               0                50               0                
4.61575                        -0.00403086608250511 -0.168227778087244 -0.947429050533572 -0.0141372016250982 -0.947429050533573 -0.0141372016250979 -0.00232688735945161 -0.168159160942278 
! Gamma         1.80833415532927 147.571217909644 1.80213394187779 147.591329713007 
! Port Impedance         50               0                50               0                
4.783                          -0.0231118455200857 -0.179635634012358 -0.940051446180275 0.091313938839512 -0.940051446180276 0.0913139388395125 -0.0213204225144648 -0.179756107601439 
! Gamma         1.8508959004169  152.896041574748 1.84458396778396 152.917030939039 
! Port Impedance         50               0                50               0                
4.95025                        -0.0444814214088217 -0.187704166193624 -0.921098258076351 0.19460267984865 -0.921098258076351 0.194602679848651 -0.0426290392099155 -0.188035541232803 
! Gamma         1.8930533977899  158.220696094075 1.88663377972445 158.242564070698 
! Port Impedance         50               0                50               0                
5.1175                         -0.0674367680024112 -0.191917170530148 -0.891071783569876 0.294489930841171 -0.891071783569876 0.294489930841172 -0.0655561373881328 -0.19247575259624 
! Gamma         1.9348289647058  163.545212586488 1.92830547437569 163.567960046506 
! Port Impedance         50               0                50               0                
5.28475                        -0.091155773394891 -0.191926143769302 -0.850600009464778 0.389861973502478 -0.850600009464778 0.389861973502478 -0.0892838862165748 -0.192720766669503 
! Gamma         1.97624245877787 168.869619606179 1.96961870466914 168.893247261197 
! Port Impedance         50               0                50               0                
5.452                          -0.114744465659458 -0.187576934175678 -0.800398177635156 0.479740972454691 -0.800398177635155 0.479740972454692 -0.112920113503178 -0.188608038294102 
! Gamma         2.01731167510476 174.193943633468 2.01059107568925 174.218452052936 
! Port Impedance         50               0                50               0                
5.61925                        -0.137288807118597 -0.178919854078838 -0.741231242015568 0.563280811741442 -0.741231242015567 0.563280811741442 -0.135550093373846 -0.180179652472484 
! Gamma         2.05805268904583 179.518209462812 2.05123848622706 179.543599088449 
! Port Impedance         50               0                50               0                
5.7865                         -0.157904098194617 -0.166204140665568 -0.673883615991425 0.639750270502875 -0.673883615991426 0.639750270502875 -0.156286384868072 -0.167677672734114 
! Gamma         2.09848014726374 184.842440506695 2.09157541865102 184.868711664594 
! Port Impedance         50               0                50               0                
5.95375                        -0.175777009418024 -0.149860510384842 -0.59914067427538 0.708508362193874 -0.599140674275378 0.708508362193873 -0.174311562124799 -0.151527225781505 
! Gamma         2.13860751107653 190.166659031531 2.13161518116163 190.193811942395 
! Port Impedance         50               0                50               0                
6.121                          -0.190198099983276 -0.130476873992049 -0.517783476439482 0.768977916424731 -0.51778347643948 0.768977916424729 -0.188911483635992 -0.132312344525824 
! Gamma         2.17844725690554 195.490886339215 2.17137010722932 195.518921127094 
! Port Impedance         50               0                50               0                
6.28825                        -0.200585512201912 -0.108771847495734 -0.430595215411177 0.820622973191124 -0.430595215411176 0.820622973191122 -0.199499604674114 -0.110749267791853 
! Gamma         2.218011038878   200.815142905688 2.21085171727895 200.844059605515 
! Port Impedance         50               0                50               0                
6.4555                         -0.20650242779529 -0.0855689376706705 -0.338375894737357 0.86293375166505 -0.338375894737356 0.862933751665046 -0.205634804789335 -0.0876602135140929 
! Gamma         2.25730981859832 206.139448485876 2.2500708476347  206.16924705002  
! Port Impedance         50               0                50               0                
6.62275                        -0.207671379473024 -0.0617720170113459 -0.241961122102849 0.895420713981342 -0.241961122102848 0.89542071398134 -0.207035801063022 -0.063948403111909 
! Gamma         2.29635396685537 211.463822192602 2.28903775148842 211.494502496641 
! Port Impedance         50               0                50               0                
6.79                           -0.203987728820069 -0.0383407680562652 -0.142241489183986 0.917617424867503 -0.142241489183986 0.917617424867502 -0.20359451702962 -0.0405731530233795 
! Gamma         2.33515334166521 216.788282555607 2.32776217628513 216.81984440346  
! Port Impedance         50               0                50               0                
6.95725                        -0.195533046576571 -0.0162637183616651 -0.0401801757653788 0.929091012426556 -0.0401801757653787 0.929091012426554 -0.195389250503649 -0.0185227284110878 
! Gamma         2.37371734662015 222.112847565581 2.36625342148904 222.145290694107 
! Port Impedance         50               0                50               0                
7.1245                         -0.182587377459945 0.00347355500335996 0.0631725469826491 0.929459065154966 0.0631725469826488 0.929459065154963 -0.182696734858949 0.00121746041246414 
! Gamma         2.41205497306339 227.437534707059 2.40452038024241 227.470858790223 
! Port Impedance         50               0                50               0                
7.29175                        -0.165637916257474 0.0199266814347703 0.166668835882779 0.918412340989892 0.166668835882778 0.91841234098989 -0.166000701513024 0.0177030039964106 
! Gamma         2.45017482916313 232.76236098322  2.442571567983   232.796565635894 
! Port Impedance         50               0                50               0                
7.459                          -0.145380700337873 0.0322375256775467 0.269058085223072 0.89574312280383 0.269058085223071 0.895743122803829 -0.145993579196367 0.0300753764134729 
! Gamma         2.48808515853516 238.08734293493  2.48041514066271 238.12242771638  
! Port Impedance         50               0                50               0                
7.62625                        -0.122711586071593 0.0396847128470188 0.36898912015417 0.861378919658791 0.36898912015417 0.861378919658791 -0.123567577864661 0.0376123541394026 
! Gamma         2.52579385067137 243.41249665583  2.51805890481795 243.448461072937 
! Port Impedance         50               0                50               0                
7.7935                         -0.0987030303226237 0.0417366575274525 0.465022655672455 0.815420238274751 0.465022655672454 0.81542023827475 -0.0997916240350552 0.0397810262391032 
! Gamma         2.56330844507621 248.73783780481  2.55551032138772 248.774681315057 
! Port Impedance         50               0                50               0                
7.96075                        -0.074564121086773 0.038102375716076 0.555657062872498 0.758179433981244 0.555657062872497 0.758179433981243 -0.0758715247190955 0.036288681463025 
! Gamma         2.60063613069676 254.063381616886 2.59277650486009 254.101103631143 
! Port Impedance         50               0                50               0                
8.128                          -0.0515830387862159 0.0287738357023602 0.639369538753891 0.690215635273502 0.639369538753889 0.690215635273502 -0.0530924845030485 0.0271252958183899 
! Gamma         2.63778374195457 259.389142913211 2.62986421905025 259.42774279833  
! Port Impedance         50               0                50               0                
8.29525                        -0.0310537558131526 0.0140527156811805 0.7146725318202  0.612359129594398 0.7146725318202  0.612359129594397 -0.0327457550274103 0.0125904271539456 
! Gamma         2.6747577524459  264.715136110722 2.66677987057279 264.754613191966 
! Port Impedance         50               0                50               0                
8.4625                         -0.0141920846554161 -0.00544522655181262 0.780181979104874 0.525718218009322 0.780181979104872 0.525718218009323 -0.0160445398537471 -0.00670234968743583 
! Gamma         2.71156426717009 270.041375231789 2.70352950086438 270.081728795103 
! Port Impedance         50               0                50               0                
8.62975                        -0.00204950187267393 -0.0288128820719045 0.834690325988518 0.431663048173316 0.834690325988517 0.431663048173317 -0.00403763879968037 -0.0298482358644397 
! Gamma         2.74820901396908 275.367873914071 2.7401187774367  275.409103208222 
! Port Impedance         50               0                50               0                
8.797                          0.00456456438360815 -0.054902412866736 0.877234607332783 0.331784459464671 0.877234607332782 0.331784459464671 0.00246838947175988 -0.0557020445026768 
! Gamma         2.78469733471239 280.694645420738 2.77655298489152 280.736749659307 
! Port Impedance         50               0                50               0                
8.96425                        0.00514122327180996 -0.0823994858392147 0.907149287835346 0.227830767781239 0.907149287835344 0.22783076778124 0.00296768657488707 -0.0829527584657828 
! Gamma         2.82103417663747 286.021702651077 2.81283701610539 286.064681014337 
! Port Impedance         50               0                50               0                
9.1315                         -0.000496645504818538 -0.109912023355871 0.924095776464363 0.12163025207213 0.92409577646436 0.121630252072132 -0.00271392795868405 -0.110212612530773 
! Gamma         2.85722408415186 291.34905815154  2.84897536388862 291.392909788212 
! Port Impedance         50               0                50               0                
9.29875                        -0.0121933460919469 -0.136061541240308 0.928065185954161 0.0150101487244478 0.928065185954158 0.01501014872445 -0.0144183960676786 -0.136108628136191 
! Gamma         2.89327119131908 296.67672412716  2.88497211333876 296.721448156058 
! Port Impedance         50               0                50               0                
9.466                          -0.0294865101073561 -0.159565487807627 0.919356532747153 -0.0902770189655241 0.91935653274715 -0.0902770189655221 -0.031682193743358 -0.159364876942809 
! Gamma         2.92917921518085 302.00471245332  2.92083093504001 302.050307964895 
! Port Impedance         50               0                50               0                
9.63325                        -0.0516527518946279 -0.179302471790229 0.898537144858873 -0.192611975840437 0.898537144858871 -0.192611975840435 -0.053782596226213 -0.178867285114737 
! Gamma         2.96495145001267 307.3330346878   2.95655507920417 307.379500745578 
! Port Impedance         50               0                50               0                
9.8005                         -0.0777633516092719 -0.194357462203057 0.866393969356291 -0.290549060890412 0.866393969356291 -0.290549060890411 -0.0797937586133565 -0.193708088233459 
! Gamma         3.00059076256568 312.661702083025 2.99214737080538 312.709037724953 
! Port Impedance         50               0                50               0                
9.96775                        -0.106741868702864 -0.204048832982667 0.823883396995547 -0.382839884964654 0.823883396995548 -0.382839884964655 -0.108644357411162 -0.203211943758936 
! Gamma         3.03609958831268 317.99072559845  3.02761020572544 318.038929838154 
! Port Impedance         50               0                50               0                
10.135                         -0.135169754113827 -0.205510439459437 0.774036093781837 -0.468289714454867 0.774036093781851 -0.468289714454875 -0.135509213564579 -0.204908917866138 
! Gamma         3.07149108409731 323.320120706241 3.06295676692424 323.369192391485 
! Port Impedance         50               0                50               0                
10.30225                       -0.165239313170275 -0.202967715188256 0.714465813277553 -0.547381846276838 0.714465813277576 -0.547381846276855 -0.166130649107252 -0.202048622082922 
! Gamma         3.10676605112514 328.649897046925 3.09818770721471 328.69983518953  
! Port Impedance         50               0                50               0                
10.4695                        -0.194504538755686 -0.194452524015582 0.647659787675094 -0.618841463742715 0.647659787675117 -0.618841463742739 -0.195472319729405 -0.193368614905787 
! Gamma         3.14192597239603 333.980064691776 3.13330447702711 334.030868283467 
! Port Impedance         50               0                50               0                
10.63675                       -0.221625690120411 -0.180409262689685 0.574629705773576 -0.68227400334729 0.574629705773594 -0.682274003347316 -0.222546201024655 -0.179197291906461 
! Gamma         3.17697418181649 339.310634402642 3.16831039364844 339.362302383838 
! Port Impedance         50               0                50               0                
10.804                         -0.245577977719429 -0.161487666591444 0.496276564705863 -0.737430934592472 0.496276564705875 -0.737430934592497 -0.246398761997244 -0.160173925989912 
! Gamma         3.21191389233346 344.641616754968 3.20320864800449 344.6941480255   
! Port Impedance         50               0                50               0                
10.97125                       -0.265541095460305 -0.138470118370679 0.413406475135989 -0.784124001305893 0.413406475135994 -0.784124001305912 -0.26623449472689 -0.137078238800041 
! Gamma         3.24674820070464 349.9730221469   3.23800231154157 350.02641557368  
! Port Impedance         50               0                50               0                
11.1385                        -0.280876198321456 -0.112232598137991 0.326751975362614 -0.822186050320532 0.326751975362614 -0.822186050320544 -0.281423564561649 -0.110786117059113 
! Gamma         3.28148009234045 355.304860807234 3.27269434256193 355.359115229642 
! Port Impedance         50               0                50               0                
11.30575                       -0.29113396088712 -0.083742923428621 0.236987595922809 -0.851445365904011 0.236987595922808 -0.851445365904016 -0.291508920483189 -0.0822759299334938 
! Gamma         3.31611244611985 360.637142802385 3.3072875920774  360.692257036022 
! Port Impedance         50               0                50               0                
11.473                         -0.304976913096725 -0.0522859737270411 0.144646614186823 -0.868866117477599 0.144646614186823 -0.868866117477598 -0.304613865694411 -0.0514627345214204 
! Gamma         3.35064803911137 365.969878042581 3.34178480923542 366.025850881818 
! Port Impedance         50               0                50               0                
11.64025                       -0.294738054475223 -0.0234482306621902 0.0510229681276919 -0.882914537600547 0.0510229681276941 -0.88291453760054 -0.294930492729318 -0.0218398608402041 
! Gamma         3.38508955115321 371.303076287385 3.37618864636283 371.359906507077 
! Port Impedance         50               0                50               0                
11.8075                        -0.28834060841076 0.00584283647485682 -0.0439979840360965 -0.884643967191154 -0.0439979840360911 -0.884643967191146 -0.288345776243282 0.00742632343023913 
! Gamma         3.41943956926204 376.63674715068  3.41050166366609 376.69443350728  
! Port Impedance         50               0                50               0                
11.97475                       -0.27648760001178 0.0333450456034258 -0.139325417784054 -0.876763239546641 -0.139325417784045 -0.876763239546632 -0.276325979342446 0.0349025284675865 
! Gamma         3.45370059185263 381.970900105181 3.44472633362068 382.02944133745  
! Port Impedance         50               0                50               0                
12.142                         -0.259604454067801 0.0579773800298006 -0.234157019097086 -0.859034889021408 -0.234157019097076 -0.859034889021401 -0.259282015776493 0.0594949148575883 
! Gamma         3.4878750327592  387.305544486552 3.47886504507824 387.364939316007 
! Port Impedance         50               0                50               0                
12.30925                       -0.238295249845773 0.0787482853051211 -0.327576640661824 -0.831248295833727 -0.327576640661813 -0.831248295833722 -0.237817370349126 0.0802083937252597 
! Gamma         3.5219652250557  392.64068949719  3.51292010711603 392.700936628374 
! Port Impedance         50               0                50               0                
12.4765                        -0.213367933810036 0.0947740746269058 -0.418546249759266 -0.793250753047946 -0.418546249759256 -0.793250753047943 -0.212742264106064 0.0961576295200475 
! Gamma         3.5559734246769  397.976344209704 3.54689375265006 398.037442330358 
! Port Impedance         50               0                50               0                
12.64375                       -0.185827592792177 0.105326652949609 -0.505899358231943 -0.744991840206653 -0.505899358231936 -0.744991840206653 -0.18506554488525 0.10661341288461 
! Gamma         3.58990181384512 403.312517570143 3.58078814183118 403.374465351325 
! Port Impedance         50               0                50               0                
12.811                         -0.156848623166152 0.109888932808263 -0.588349156585638 -0.686575566721297 -0.588349156585636 -0.686575566721298 -0.155969161094409 0.111053497525446 
! Gamma         3.62375250430966 408.649218400999 3.61460536524064 408.712014497164 
! Port Impedance         50               0                50               0                
12.97825                       -0.127842687346976 0.108146564573075 -0.664502594473539 -0.618302136482757 -0.664502594473541 -0.618302136482757 -0.126791660673842 0.109278429089743 
! Gamma         3.65752754040727 413.986455403991 3.64834744690043 414.050098453088 
! Port Impedance         50               0                50               0                
13.1455                        -0.0999594296843538 0.100268509046957 -0.732957748737319 -0.540760953577854 -0.732957748737323 -0.54076095357785 -0.0988623664990922 0.101199618814445 
! Gamma         3.69122890195259 419.324237162692 3.68201634711173 419.388725786246 
! Port Impedance         50               0                50               0                