! Touchstone file exported from HFSS 2021.2.0
!        File:           D:/20220920 new project/ISC_3rd_design/NewISC_3_with_imtiaz_dim_connector.aedt
!        Generated:      10:32:09 AM  Aug 03, 2023
!        Design:         DUT_51
!        Project:        NewISC_3_with_imtiaz_dim_connector
!        Setup:          Setup2
!        Solution:       Sweep
! Variables:
!        $_L_pin_on = 0.01nH
!        $_R_pin_on = 1ohm
!        Con_T = 0.012mm
!        Con_W = 0.11534mm
!        DUT = 30.8024mm
!        Gap = 0.71534mm
!        Gap_connector_vias = 1mm
!        Radius = 0.225mm
!        Space = 0.837mm
!        Sub_L = 9.5988mm
!        Sub_T = 0.05mm
!        Sub_W = 13.8408mm
!        Vias_N = 49
!        Vias_gap = 1mm
!        quater_wave_L = 1.2798mm
!
!Created with skrf (http://scikit-rf.org).
# GHz S RI R 50.0 
! Port[1] = 1
! Port[2] = 2
!freq ReS11 ImS11 ReS21 ImS21 ReS12 ImS12 ReS22 ImS22
0.1 -0.0007221200726069445 -5.119537767287602e-05 0.9874151025413807 -0.10263161082605993 0.987415115900531 -0.10263161015704657 0.0007899782945704299 0.00028802244890321904
0.26725 -0.0005299830680631692 0.00029980891298357105 0.9529005499283767 -0.2692338429975234 0.9529006914756483 -0.2692338851786813 0.0009255918035304305 6.492415928470788e-05
0.4345 -0.00030473954692529677 0.0005198754521585471 0.8908014665184809 -0.42565956434980046 0.8908017938047631 -0.42565971552896076 0.000861591306242214 3.234957502912077e-05
0.60175 -8.06157076979775e-05 0.000712878374495837 0.8037360419287867 -0.5681533008808695 0.8037366122597163 -0.5681536697858544 0.0008073251138427462 0.00012610511951632875
0.769 0.00019306981309598174 0.0007132169064850557 0.6947461535648612 -0.6932014355228334 0.6947469374864552 -0.6932021647275741 0.000860472730080772 0.00010798385682332331
0.93625 0.00043191659510428623 0.0005726939054417797 0.5670991360956739 -0.7978514306238284 0.5671000512160597 -0.7978526319484018 0.0009049136820080475 1.4224954187395944e-05
1.1035 -0.00020517324213558015 0.00044027859988478996 0.4244134907051489 -0.8792695185630903 0.4244137279181739 -0.8792702954497537 0.0001504884597755057 -2.3784326271696077e-05
1.27075 -0.000488605815915416 0.000688112599506796 0.2708292006342606 -0.9358296069230947 0.27082925752259146 -0.9358297031930995 -0.000213514835528041 0.0003074991665657639
1.438 -1.7991417832289355e-05 0.0006763508592580597 0.1101964447721821 -0.9661663052797899 0.11019641977236777 -0.9661661994366946 0.00019426943380059175 0.00038091089991916863
1.60525 0.00038594808987823213 0.00019687186112299013 -0.0530246288403039 -0.9691300878842913 -0.053024866818801586 -0.9691295788734515 0.0005651956227528745 -1.8300201148686857e-05
1.7725 0.000353681117155738 -0.00018864555322487334 -0.21395985819084765 -0.9447338430249487 -0.2139598514623149 -0.9447325669033813 0.0005192345424118797 -0.00034076751377477843
1.93975 0.00035478836692257737 -3.320089362734806e-05 -0.36812819382354056 -0.8940552445187901 -0.3681271216800218 -0.894053464318966 0.0005027646222595036 -0.00013855865960615138
2.107 0.0009931633190728081 0.0002549446546946145 -0.5115263424403047 -0.8185996864630443 -0.5115238113291106 -0.8185983983676484 0.0011110869436312884 0.00019761653005542518
2.27425 0.0020405831449065367 -0.0001216547100317926 -0.6401578043315325 -0.7202876681551568 -0.6401543515348915 -0.7202879733295628 0.002134593793933 -0.00011613827783817435
2.4415 0.0026139791371416754 -0.0012726183160859002 -0.750163095986768 -0.6019813813019352 -0.7501599760113875 -0.6019837051130202 0.002719957332978605 -0.0011974012328223559
2.60875 0.0022184909873778844 -0.002470317792306949 -0.8385073494461168 -0.46742189375306553 -0.8385058046746942 -0.46742566607692704 0.002390536458291981 -0.002342322915641591
2.776 0.0011977237486852363 -0.002989549053400452 -0.9031549214247513 -0.32056348876154633 -0.9031554927850203 -0.3205674678840067 0.00149178921173741 -0.0028466618127113014
2.94325 0.00022823036460133768 -0.0027428783049751613 -0.9426216845128782 -0.16527301204997752 -0.9426239926617418 -0.16527596015789048 0.0006994645318699846 -0.002632429018064159
3.1105 -0.0003366972114120289 -0.0021468158867142704 -0.9557272017131005 -0.005626321534306533 -0.9557302451626459 -0.005627582813335197 0.0003774045436064216 -0.0021280173799850238
3.27775 -0.0006514292013171941 -0.0015974641315443256 -0.9419041497486154 0.15384733375989124 -0.9419068635973575 0.15384764550116564 0.00039111018925096913 -0.0017720091720103623
3.445 -0.001088379603080676 -0.0010797401144370558 -0.9016028860220655 0.3084374680942317 -0.9016046205559413 0.3084386947338719 0.0003831516569619414 -0.0016360054915657268
3.61225 -0.001773644842817293 -0.00016688815282621047 -0.836251795138494 0.45376951005785704 -0.8362524835173593 0.45377088762395235 0.00022142443503149478 -0.0014128606107547473
3.7795 -0.0023193757639397156 0.0016182470665674284 -0.747855570663809 0.585995867715937 -0.7478555680499684 0.5859969018140552 0.00025068451903238753 -0.0007949709942829536
3.94675 -0.0020081910918229653 0.004386862506276776 -0.6387960549240089 0.7015758320150458 -0.6387958000851617 0.7015764283663425 0.0011289265607723857 -6.47681549427459e-06
4.114 -0.00011050846330532167 0.00790729898269904 -0.5120614251341947 0.7971792125334078 -0.5120611756956316 0.797179587937657 0.0033985258410135608 0.00012843290102226845
4.28125 0.0037670475580214163 0.01107276028970855 -0.37140479226004147 0.8700532917416384 -0.3714045666884828 0.8700539104736963 0.006470442968121621 -0.0017019964377080615
4.4485 0.004465016374775421 0.006639651795653227 -0.22102042032004574 0.9184481374872367 -0.2210199899248178 0.9184487266445929 0.0034550803951879233 -0.004529895784809196
4.61575 -0.0026887277542751303 -0.0007369419163452892 -0.06486567918845412 0.9413007723678836 -0.06486581997439317 0.9413007011307752 -0.004826332286287129 -0.0014942382726836345
4.783 -0.005974640889205227 -0.0005646106386027212 0.09291995577079419 0.9378432603731959 0.09291969316969095 0.9378439348920989 -0.0067886922768223695 0.0023668738734060214
4.95025 -0.00601857865546733 0.0012736564539312422 0.2478425925471291 0.9079785656192694 0.2478427038690013 0.9079797291082693 -0.005783802219871934 0.004667556322467358
5.1175 -0.004997532543480461 0.002352828278491993 0.3952527919669606 0.8525806675150206 0.3952533448398016 0.8525820504369217 -0.00409088798813049 0.0054710948097169195
5.28475 -0.004222261200538301 0.0024963671513468233 0.5309131225587049 0.773592452269593 0.5309141096632011 0.7735939232507454 -0.0028529093230430453 0.005186747185731238
5.452 -0.004265076051677021 0.002395768353897175 0.6513316518784783 0.673540650707043 0.6513330948009284 0.6735421448503127 -0.0025565052065291147 0.00462746969285803
5.61925 -0.00488047675500294 0.0028578240980238895 0.753529069490085 0.5551244116895481 0.7535310284515501 0.5551258480565344 -0.0029250836401853338 0.004624183319858158
5.7865 -0.005250771753110034 0.004167370885507421 0.834684375861772 0.4213236529016074 0.8346869039801091 0.4213248874129655 -0.0031331605874512433 0.005472034734113035
5.95375 -0.004623155671133694 0.005802990930986816 0.8922245214698377 0.27580152383220186 0.8922275972252218 0.2758023580983454 -0.002424853273264041 0.006662066478786949
6.121 -0.002992697075414899 0.006800899108326208 0.9243768012019382 0.12296824391034034 0.9243802876681095 0.12296849188364967 -0.0007921777200851771 0.00724305424915226
6.28825 -0.0011693578885865474 0.006628481685759264 0.93054642803134 -0.032567211651183925 0.9305501002485774 -0.03256764042670757 0.0009525813108728076 0.006692330909647557
6.4555 3.036714950067909e-05 0.005702126089525569 0.9110083897693746 -0.18658114585214314 0.9110120204243801 -0.18658221169041095 0.0019831681265960743 0.005435622391488558
6.62275 0.0006072645633304133 0.004836475380395014 0.8663732765273527 -0.335158022358941 0.8663767156950088 -0.33515960081978075 0.002297797060701899 0.004301868718231183
6.79 0.00116224515057144 0.004276338363107868 0.7976300109938477 -0.4742652845459987 0.7976331939291589 -0.4742672552229346 0.002519462097530945 0.003557637168221023
6.95725 0.00198018434559723 0.0035906401021440076 0.7066029695374254 -0.5998106363141236 0.7066058405563227 -0.5998129356288485 0.0029757491742472813 0.0027894939947935293
7.1245 0.0026834573362596913 0.0024696454511349726 0.5960378516933424 -0.7081602373710578 0.5960402638848283 -0.7081628050572463 0.003334392262635562 0.0016870198209320807
7.29175 0.002849690664029904 0.0012867100323629655 0.46921243794458906 -0.7964261080045801 0.46921415471581945 -0.796428725865618 0.003208095304152063 0.0006050502451523353
7.459 0.0027668673757179213 0.0007118747090714868 0.3296339486888667 -0.8623168497735496 0.32963486027435207 -0.8623190395347282 0.002907444039801331 0.0001852840019826458
7.62625 0.0033980117116179653 0.0007833560904914254 0.18110363525308998 -0.9039745420572526 0.18110401641942225 -0.9039758145755155 0.0034077317795959128 0.00043173801667396655
7.7935 0.005413969639757918 0.0004215472458339864 0.027857117318488667 -0.9201335944026137 0.027857367794926452 -0.9201339479001142 0.005380535496862834 0.00022428849290094532
7.96075 0.00806438509182418 -0.001869469872510826 -0.12560544835621051 -0.910430997363152 -0.12560570522671938 -0.9104307448519421 0.008058047761703727 -0.001978595076154957
8.128 0.009141736510422514 -0.006314388080392766 -0.2749515759149509 -0.8754304483575941 -0.27495363906790316 -0.8754287392126681 0.009190053330865984 -0.006444853414554835
8.29525 0.006736966879060425 -0.010609105846297179 -0.4162268378583024 -0.8162744903983572 -0.41623049776120724 -0.8162685943600407 0.006797771655679666 -0.010905686599771147
8.4625 0.0018251836144920972 -0.010904865453673696 -0.5456113009003853 -0.7344885162277118 -0.5456126454474168 -0.7344779504728409 0.0017583409323683671 -0.01153090796553223
8.62975 -0.0010880604008422778 -0.005521470874058923 -0.6592988781275329 -0.6323367494861795 -0.6592962103391039 -0.6323286656467282 -0.001555816495894674 -0.006630220947309098
8.797 0.0013010171641183593 0.0009965101755425795 -0.754078899121053 -0.51304079920854 -0.7540781534444154 -0.5130393363546323 9.389064131243297e-05 -0.0005718443510212556
8.96425 0.003917133085890034 0.002184923024966741 -0.8276806270275667 -0.38012259897524975 -0.827680717310117 -0.38012300038675645 0.002002013282121809 0.00058870837682187
9.1315 0.002181600475234649 0.0005898543331284041 -0.8783482618513073 -0.23702523993105334 -0.8783487434316235 -0.2370254164661999 0.00014201497542149638 -0.0005587302343976336
9.29875 0.0001714362870217156 -0.0002572319739023827 -0.9045243469912454 -0.08735096228151112 -0.9045232939967712 -0.08735061380315229 -0.0015044188470005008 -0.0009141766099996225
9.466 -0.0006821443590475547 -0.0012354626529721274 -0.9050048347288456 0.06457474915828856 -0.9050030022762307 0.06457261318743482 -0.0018569037375746403 -0.0016047448575530546
9.63325 -0.0015790286393215025 -0.0019992142384843703 -0.8799682332240955 0.21382507466108724 -0.8799678958408014 0.21382263464173432 -0.0022968611214378024 -0.002274760235335918
9.8005 -0.0021053856904213707 -0.0015738231671430514 -0.8314169777179273 0.35642993890823826 -0.8314168107456198 0.35642941197383876 -0.0024459630209776075 -0.001878498062597947
9.96775 -0.0010631654158443915 -0.0006124271066161313 -0.7614497114301892 0.49092401564643817 -0.761450523740149 0.4909248113696019 -0.0010886930943605072 -0.0010361638328860445
10.135 -0.0015021135051645762 -0.0014459205025692534 -0.6686396871037835 0.6110529129909741 -0.6686454080283561 0.6110608677937199 -0.0018396915401178437 -0.001765823318010687
10.30225 -0.0021495529912475553 -0.001205300958592729 -0.5569545628040435 0.7130135681404002 -0.5569616234726706 0.7130255633788163 -0.0021097210063520944 -0.0018574413896329106
10.4695 -0.0026655451809675657 -0.0007530070610524235 -0.4300475294494447 0.7948605031097972 -0.43005510824253357 0.7948773535488081 -0.0024837360688501064 -0.0017051216334256908
10.63675 -0.0029990808337723163 -0.00023486774784700626 -0.29145798091406094 0.8543986100050475 -0.2914649911471847 0.8544213487609831 -0.0028071665775767085 -0.0014948839881909481
10.804 -0.003133931160278783 0.0002850537185433849 -0.14504511266026332 0.8900090548761568 -0.1450497294164641 0.8900384119305443 -0.003041367552987742 -0.0012582453543674016
10.97125 -0.0030698127262009656 0.0007664812426300682 0.005090028423567261 0.9007402633178891 0.005090135977567967 0.9007759337368368 -0.0031522814835526214 -0.0009965116220219256
11.1385 -0.002835053980796523 0.0011723619075599614 0.154750744303633 0.8863539492160198 0.1547576692917031 0.8863942090030575 -0.0031210591029501213 -0.0007229778630275727
11.30575 -0.0024668324714524053 0.0014736169202709294 0.29977491353860286 0.8473098944939256 0.2997898472687085 0.8473516181658194 -0.002941975775789838 -0.000457412772828571
11.473 -0.0007516922957824176 0.0006372418456370155 0.4361731404439136 0.7847446149216106 0.4361705290410574 0.7847512531522375 -0.0014056660585311416 -0.0010933515892712405
11.64025 -0.0015263343540972488 0.0014417689035553065 0.5600453307556039 0.7004441279693846 0.5600725743680084 0.7004831922489918 -0.0022395084127172643 -0.00026911326684579684
11.8075 -0.0008313677245917056 0.0008341646103226007 0.6680852455663562 0.5968165040896708 0.6681162639517647 0.5968487471732852 -0.0015797399206032986 -0.0005011310963624607
11.97475 -6.084498432143426e-05 -0.0004673326781078277 0.7572835458911635 0.47678215315401046 0.7573155845094894 0.4768077862735902 -0.0006629055902457048 -0.0012453666835211818
12.142 0.000522815485215114 -0.0025644801604533946 0.8251921224640815 0.3437100261559203 0.8252237555807915 0.3437306714914239 0.00039201311909536907 -0.002805326741493433
12.30925 0.0004265984295508188 -0.005148460937076563 0.8699483709769017 0.20133735988994184 0.8699795360471219 0.20135454406842918 0.001000770901673033 -0.005180396432833051
12.4765 -0.0006266026905317116 -0.007485167333036696 0.8903508469823528 0.05366869705833892 0.8903802688707438 0.05368251764562803 0.0006291240335149603 -0.007677207955544357
12.64375 -0.002470966883975398 -0.009010695300254182 0.8858966968382751 -0.0951659519562229 0.8859195150046525 -0.09515529627679677 -0.0006322166990019237 -0.009600549116170268
12.811 -0.005261297033610876 -0.009380882383272629 0.8567604188247806 -0.2410548050379352 0.8567639764969079 -0.24104940716661463 -0.002827558236893568 -0.010579519483653335
12.97825 -0.0077763674069702 -0.014447220503581923 0.8040540671087792 -0.3797037136604145 0.8040234772643434 -0.379831008662986 -0.00418671611476383 -0.01684036722419391
13.1455 -0.008851802341210635 -0.012352113792607367 0.7286960064252146 -0.5077748917121878 0.7287191134855178 -0.5077956248794103 -0.005172587789310672 -0.015168719935747215
13.31275 -0.010349518728836068 -0.011840609125738859 0.6333581562249754 -0.6213116302287461 0.6333652582040352 -0.6213170443524308 -0.007971356907702374 -0.014369108908141762
13.48 -0.009688328201187646 -0.011880519206431722 0.5206468688209396 -0.7172476130631349 0.5206479131004144 -0.7172483879766289 -0.011155436832067944 -0.010633779874344131
13.64725 -0.007945521108161912 -0.011394677643755291 0.39368291854427695 -0.7930370744651868 0.39368296003836545 -0.7930370849239424 -0.01180945506095402 -0.005411959335051279
13.8145 -0.004354489727222263 0.0031946969140676656 0.25562234625892505 -0.846894976480969 0.25562236964849144 -0.8468949446093563 0.008457078188142796 -0.008678475493139035
13.98175 -0.0020087769860379495 -0.008681247142580367 0.11141649743386217 -0.8764998784862591 0.11141660049603253 -0.8764999237747695 -0.004852950277474202 0.004311823501256265
14.149 0.002065599552400821 -0.006661222013168891 -0.03606523880557755 -0.8818803847838823 -0.036065139322580486 -0.8818804595915009 0.0013405326841369261 0.0031019131678353823
14.31625 0.0037481085355547533 -0.006264406535999516 -0.18217971223008925 -0.8626233463496933 -0.18217968880278748 -0.8626233436013103 0.003960779395215344 2.141517802377313e-05
14.4835 0.003096927003070543 -0.005773464557975453 -0.32285339307415944 -0.819381398316399 -0.3228534463072908 -0.8193815197407732 0.0027313404794667012 -0.0018080220015004624
14.65075 0.003333139402697971 -0.005255111832334687 -0.45422204515781417 -0.7534113487017876 -0.45422230042904455 -0.7534120079315345 0.0015774281149809194 -0.0020349209362132067
14.818 -8.073249771922697e-06 0.0026938227341033044 -0.5726360955377697 -0.6666665964277598 -0.5726369274122144 -0.666668149763783 0.004477390973470427 0.0021047096774162305
14.98525 -0.0003596681336012486 -0.0007951572981988869 -0.6748264798946424 -0.5614557806693937 -0.6748284904836244 -0.5614583163868835 0.0025973217859311393 0.001072069710045323
15.1525 -0.0005693480513808327 -0.001006293359452036 -0.7580144183255138 -0.44088806956766446 -0.7580182956021825 -0.44089127252616556 0.0024183951688833884 0.0006456747804179652
15.31975 -0.0009819838390640523 -0.0008060877854465485 -0.8199329018347609 -0.30832184934083245 -0.8199391956457098 -0.3083249473765308 0.0021778159199005035 0.0004023451737545196
15.487 -0.0014093902426462936 -0.00030153085570859897 -0.8589167928922142 -0.16745814600361747 -0.8589256456513878 -0.1674599645040113 0.0018916287997607214 0.0003833020254371926
15.65425 -0.0016937650382405321 0.0004664949800213952 -0.8739337873892972 -0.022217488584940215 -0.8739446545054721 -0.022216654807242775 0.0016804481879953703 0.0005842365625727056
15.8215 -0.0017286519673659143 0.001417229491229098 -0.8646116447857444 0.12336713448385062 -0.864623092234976 0.12337177235159014 0.001632417838871178 0.0009427598627880542
15.98875 -0.0014548286507235914 0.00246342105539704 -0.8312459569040664 0.26525969001756206 -0.8312557382960257 0.26526842426073177 0.0017906638345209225 0.0013928258463506817
16.156 -0.0008186157257359106 0.0035192407472179332 -0.774790385980209 0.3995269650151002 -0.7747960529211683 0.3995385897634969 0.002197311774816496 0.0018789349614785136
16.32325 0.00024205784530698105 0.00445214753698378 -0.6968348999513965 0.5224405910339871 -0.6968349814511219 0.5224522746237557 0.002912870280111432 0.002306811697084979
16.4905 0.0017335802948375903 0.005038290302684295 -0.5995714477887379 0.6305796618070981 -0.5995666958837933 0.6305878711115745 0.003955413524307921 0.0024938524740754087
16.65775 0.0034984566211367883 0.005007535675853339 -0.4857402766496667 0.7209329693412991 -0.4857339853568175 0.7209354190965332 0.005191985594303247 0.0022057639523200973
16.825 0.0051677294195269785 0.004167389797795462 -0.35855409744607536 0.790992525736784 -0.3585504366642963 0.790990112990434 0.006291292619539222 0.001287606794052834
16.99225 0.006214101441779418 0.0026058241308876823 -0.22160274932134913 0.8388311702874859 -0.22160392930176037 0.8388279061132587 0.0067745014498796705 -0.00016148563427614837
17.1595 0.006174146078956458 0.0007785946392884682 -0.07874393870364521 0.8631597862359902 -0.07874809723384307 0.8631599972479578 0.00623007047858137 -0.001696433980032358
17.32675 0.004926731219427617 -0.0005506011877037543 0.06601587948386826 0.8633598628862864 0.06601318071536534 0.8633643557126571 0.00458198795012414 -0.0026033093549469913
17.494 0.002933634979520157 -0.0006202536227019424 0.20863975964504808 0.8394885366791034 0.2086410064327176 0.8394939965943335 0.0023100717010096014 -0.0022189042036025557
17.66125 0.0011997318475019461 0.0007973542311945532 0.34516811497046335 0.792263935075336 0.34517149108965517 0.7922669813338643 0.0003859517836045448 -0.00044504672679201995
17.8285 0.0007224910005398065 0.0029996439057868723 0.4718188858069584 0.7230400367890112 0.4718213914609501 0.7230406347569066 -0.00027667983532912374 0.001922595166424998
17.99575 0.0017057804939027204 0.004685023208728184 0.5850825431621245 0.6337704439613092 0.5850834780964029 0.6337702686933937 0.00045021653800694957 0.0036060929721844354
18.163 0.0033942467720676807 0.004930523089239233 0.6818110267522831 0.5269657994475145 0.6818112045221103 0.5269656747482188 0.0018183731257716447 0.003812694692362867
18.33025 0.004766545775379757 0.0037602715500621997 0.759313476305066 0.4056402047558623 0.7593134796755968 0.4056401682350891 0.0028984282015782 0.0026908737176739445
18.4975 0.005222934573593213 0.0018410795028164575 0.8154496059196122 0.2732242615958863 0.815449581802065 0.2732242576429067 0.0031927377124063294 0.000942180619633963
18.66475 0.004708956751470109 -8.723057950532111e-05 0.8486932142867833 0.13345460067843457 0.8486931648810192 0.13345461619783744 0.0026983234388600896 -0.0007391303475219324
18.832 0.003516393251191116 -0.0015200380847481074 0.8581696086589139 -0.009736647178456292 0.8581695245470808 -0.009736610273855084 0.001698807457394598 -0.0019216598044046792
18.99925 0.0020659271709855195 -0.002266602104201279 0.8436786407453741 -0.1523349366938601 0.843678541584854 -0.1523348791488271 0.0005682547332571675 -0.0024759978220737604
19.1665 0.0007183011614523855 -0.0024241148355783095 0.8056950251921579 -0.2903629732626324 0.8056949501376496 -0.29036291657837254 -0.0003945044902900485 -0.0025344253207233627
19.33375 -0.00038116515470449134 -0.0022471036787206945 0.7453411264527158 -0.419991294322527 0.7453410977467176 -0.4199912730432827 -0.0011072642295693346 -0.002359370654707567
19.501 -0.0013264693523035499 -0.001923053835675037 0.6643511975836567 -0.5376301702511651 0.6643512064160326 -0.5376301940725672 -0.0017193095816741073 -0.0021201828277604834
19.66825 -0.002273427209084404 -0.0014033010252122446 0.5650398497512541 -0.6400245311337491 0.5650398866549093 -0.6400245569349451 -0.002423729837133532 -0.0017272401920202102
19.8355 -0.003182946685480574 -0.00046162171727067575 0.45024618811112016 -0.724370424727252 0.45024628888447155 -0.7243703764285148 -0.003187464610360534 -0.0009035375676484311
20.00275 -0.003717821117556183 0.0010378211357866124 0.32321950910244013 -0.7884190503993042 0.323219764361397 -0.7884188794224367 -0.0036504428148549373 0.0005295749065821892
20.17 -0.0034120637926917247 0.0028766864714793675 0.18747217298574392 -0.8305113019822322 0.18747267898235037 -0.8305110399652179 -0.0033046227810173967 0.0023719464256267975
20.33725 -0.0020145684440290856 0.004431873091922653 0.04667389259834573 -0.8495407567933388 0.046674671007764984 -0.8495405119974252 -0.0018562915329311397 0.003988720754960352
20.5045 0.00019136026330818234 0.004915352187985139 -0.09536930816817885 -0.8449175319102238 -0.09536836316666825 -0.8449174230356065 0.000436646063055858 0.0045553601740955935
20.67175 0.002304078770276767 0.0038529940175403704 -0.23469557490853565 -0.816619738096034 -0.23469468235119662 -0.816619810168713 0.0026665189276558546 0.0035496615186173947
20.839 0.003161285933170937 0.0016060401705919464 -0.36724609517653484 -0.7653478081842777 -0.3672454931884099 -0.7653479917988744 0.003630207730325009 0.001305562586404664
21.00625 0.0021816475587235137 -0.0005198739477855138 -0.48910801121713876 -0.6926605123644696 -0.48910787886961293 -0.6926606758552339 0.0026938117712623794 -0.0008544154113571609
21.1735 0.00015571144315280113 -0.0011055599306553378 -0.5968675345815849 -0.6008789049674007 -0.5968679632735402 -0.600878961425503 0.000641355917829651 -0.0014492870986098944
21.34075 -0.0011687383992616505 -2.4530689204388043e-05 -0.6877598541961094 -0.4927336818666589 -0.6877609119735199 -0.4927336675111781 -0.0007160341595235237 -0.0003210253833053796
21.508 -0.0007757804054350018 0.0012866761941694766 -0.7594704924297349 -0.37113383148115986 -0.7594723000267634 -0.3711338554661867 -0.0003082188718199069 0.0010456883221265539
21.67525 0.0006613615392628627 0.0013318190737389712 -0.8099818486881858 -0.23930271389759622 -0.8099845147484678 -0.23930279020872075 0.001169574514046097 0.0010991303021699941
21.8425 0.0016883165622032514 -6.5830252964999e-05 -0.8377646812427715 -0.10092175287790028 -0.8377680465870285 -0.10092170167509507 0.0022158093025048675 -0.0003278403951245193
22.00975 0.001453727783534746 -0.001909915249242708 -0.8420327031176404 0.04002617566409425 -0.8420361501685331 0.040026560712295434 0.001967959407115208 -0.002190900146619504
22.177 0.00021147158873522157 -0.003046405953949921 -0.8227747205278502 0.1795381257581448 -0.8227774318975213 0.17953878562766434 0.0006951024992021462 -0.0032992942189061236
22.34425 -0.0010858219553938342 -0.0030250440472915224 -0.7806307391728134 0.31375322233538316 -0.7806322914127727 0.3137538395695921 -0.0006430459298459555 -0.0031874573534705214
22.5115 -0.0016141284160727104 -0.0023362187308636068 -0.716804523510061 0.43897376736078486 -0.7168051310211695 0.4389741076336735 -0.0012335232862292211 -0.0023372877011756457
22.67875 -0.0013702212222042737 -0.0018897239646191166 -0.6330952800512213 0.5516918628262077 -0.6330954314743363 0.5516919673702028 -0.0010871815068027313 -0.0016464315334030338
22.846 -0.001088170038610451 -0.0020430377301339335 -0.5319300549028442 0.6487550902924205 -0.5319300806275595 0.6487551068351878 -0.0009308735934739215 -0.0014514634831117625
23.01325 -0.0011883664743896328 -0.002213982857040965 -0.4161985426241773 0.7275648143098985 -0.41619855304797826 0.7275648209441936 -0.0011341591002420144 -0.0011571004165430107
23.1805 -0.0009991696717903936 -0.001857013307626219 -0.28898561400847717 0.7860205303566519 -0.28898564090501727 0.786020573768911 -0.0009402667069402151 -0.00025508749249342384
23.34775 0.0007771117980330915 -0.0010879525584708005 -0.1537472731488549 0.8227297148719731 -0.1537473323416258 0.8227299412577681 0.0010010823155980238 0.0010435369662126215
23.515 0.0027841611979487688 -0.0012898340468727454 -0.014387834326997029 0.8364334813126366 -0.014387868508999424 0.8364341760717955 0.003284331862141802 0.001285227540526429
23.68225 0.002876181919134923 -0.0025656826535963156 0.1250131540523487 0.8262119564756563 0.12501333810384502 0.8262134529739223 0.0037251757464506832 0.0003081072639228577
23.8495 0.0014050090487493505 -0.003219177322912603 0.26045220426173876 0.7928989671842173 0.26045291889768085 0.7929015149128859 0.002627660483652955 -0.00023223829653405692
24.01675 -0.00025911495881250635 -0.0025693523216834685 0.3883314615744237 0.7376657537723117 0.38833306969511217 0.7376694395253568 0.0012918032476724461 0.00033540226390264827
24.184 -0.0010688162992601308 -0.0012396415700591315 0.5052102482984483 0.66204054733414 0.5052131231810278 0.6620452621420037 0.0006998431974751251 0.0014124549423113163
24.35125 -0.001377280368088027 0.0013273433935907155 0.6078246757642157 0.5680985047308158 0.6078332687604151 0.5681046087855145 0.0004506436506492434 0.003650045830509081
24.5185 -0.0007185539312463546 0.0031572110711912092 0.6933070983259289 0.45849408009913545 0.6933226029983346 0.45849756264822117 0.0009866768830210856 0.005065671647746996
24.68575 0.00015510344158841186 0.0035946866276203478 0.7593090814455346 0.3363032917245059 0.7593259157176395 0.3363020101415688 0.0015148932205050862 0.005057594767389179
24.853 0.0006848841841083746 0.003359019461834674 0.8040079323154465 0.20493089635103345 0.8040208926280854 0.2049279314707392 0.0014702331093056722 0.004457488957489217
25.02025 0.0009782249239106396 0.003162268450489362 0.8261573575541461 0.0680610743757871 0.8261660757751222 0.06806029116778804 0.0009970000288540052 0.004089547958383351
25.1875 0.0014572551339454946 0.0032106922780991073 0.8251709714514656 -0.0704401178693784 0.8251770314642413 -0.07043788566554565 0.0006273727251548903 0.004224925436706779
25.35475 0.0023476650489148154 0.003278393550392153 0.8011560944379542 -0.20668751514684586 0.8011605186671855 -0.20668333791249338 0.000684077561867058 0.004643839365105727
25.522 0.003501256037247824 0.003172925994663966 0.7548531348091636 -0.33692014372691004 0.7548564233091909 -0.3369159149666568 0.0010901082520456545 0.0051409694400661975
25.68925 0.00478901337578834 0.0029388618269187783 0.6875644814640349 -0.4575540724963661 0.687566221906551 -0.4575515801991326 0.0017895237010568527 0.005744901352685031
25.8565 0.006262585022570127 0.0025098163629098634 0.6011576300439226 -0.5652215087266502 0.601157656510007 -0.5652211816213796 0.0029205354776606907 0.006340764495672911
26.02375 0.007796220371077321 0.0015566415010611762 0.49807941554159646 -0.6568869475512907 0.4980789045621208 -0.6568890567749744 0.004428415335607748 0.006496955688775334
26.191 0.008843527222545621 -0.00014511167153828664 0.3812865605317263 -0.7299988497931647 0.3812862444347737 -0.7300044934426453 0.005790361630379978 0.00584581903852735
26.35825 0.008708144682852834 -0.00228834641573393 0.2541023713576836 -0.7825829068182097 0.254101076201159 -0.7825920340735592 0.006276187583066037 0.004537610749399623
26.5255 0.007112866616180538 -0.004024206312836891 0.12008141379478665 -0.8132512119576276 0.12007802596642259 -0.8132610913650455 0.005519686243299881 0.003275185998626938
26.69275 0.004594140140427801 -0.004463972515965808 -0.01706339792003092 -0.8211863507139827 -0.017067817356378634 -0.8211938568910343 0.003918116407621483 0.0028410098751561197
26.86 0.002319618590645823 -0.0033920504166787303 -0.15350484381333612 -0.8061728067700379 -0.15350844729569035 -0.8061771581074909 0.0024710380580474063 0.0034224183250803645
27.02725 0.0012830419607562406 -0.001601342082444268 -0.2854027520208394 -0.7686665363882523 -0.2854049644638906 -0.7686686440985349 0.0020238285060315796 0.004293009311680904
27.1945 0.0014320771313441755 -0.0003633050345242892 -0.4090843324482064 -0.7098013362845235 -0.40908554595404406 -0.7098021300388258 0.002433772446394547 0.004295903099294035
27.36175 0.0016788028434488386 -0.0002341957384130594 -0.5211867821197067 -0.6312670014506524 -0.521187353831769 -0.6312670641341334 0.0025313552793569047 0.0030076783075691296
27.529 0.0011124939915096235 -0.00051335750400619 -0.6186444421140359 -0.5351916280105865 -0.6186445465650923 -0.5351914603369237 0.0013380179493061167 0.0013512127265089754