! Touchstone file exported from HFSS 2021.2.0
!        File:           D:/20220920 new project/ISC_3rd_design/NewISC_3_with_imtiaz_dim_connector.aedt
!        Generated:      1:08:33 AM  Aug 03, 2023
!        Design:         Reflect1
!        Project:        NewISC_3_with_imtiaz_dim_connector
!        Setup:          Setup2
!        Solution:       Sweep
!
! Variables:
!        $_L_pin_on = 0.01nH
!        $_R_pin_on = 1ohm
!        Con_T = 0.012mm
!        Con_W = 0.11534mm
!        DUT = 30.8024mm
!        Gap = 0.71534mm
!        Gap_connector_vias = 1mm
!        Radius = 0.225mm
!        Space = 0.837mm
!        Sub_L = 9.5988mm
!        Sub_T = 0.05mm
!        Sub_W = 13.8408mm
!        Vias_N = 49
!        Vias_gap = 1mm
!        quater_wave_L = 1.2798mm
!
# GHz S RI R 50.000000
! Terminal data exported
! Port[1] = 1
! Port[2] = 2
0.1                            0.997023091605204 -0.0675558555863302 5.32721228472102E-10 -1.3971000949965E-10 5.32721228472102E-10 -1.3971000949965E-10 0.997023154629587 -0.067596118198253 
! Gamma         0.22624121765169 3.29134020163518 0.225791963894416 3.28942532479151 
! Port Impedance         50               0                50               0                
0.26725                        0.982088889624036 -0.17944156550637 3.00060220214434E-09 -2.41751384674081E-09 3.00060220214434E-09 -2.41751384674081E-09 0.982082068555   -0.179566059424298 
! Gamma         0.307076289464859 8.75128263744365 0.305996300213185 8.74678202504195 
! Port Impedance         50               0                50               0                
0.4345                         0.954865401909141 -0.288156445752472 4.49908019075048E-09 -8.83864088557848E-09 4.49908019075047E-09 -8.83864088557847E-09 0.954829932792282 -0.288360522822532 
! Gamma         0.401175848489992 14.1648180251123 0.399560973603604 14.1579193816929 
! Port Impedance         50               0                50               0                
0.60175                        0.915820811297524 -0.392711663341556 9.61952675462351E-10 -1.82500033012011E-08 9.61952675462351E-10 -1.82500033012012E-08 0.915740225751623 -0.392990026872226 
! Gamma         0.495880807025011 19.5520837358176 0.493610473295271 19.542863855903  
! Port Impedance         50               0                50               0                
0.769                          0.865557825461585 -0.49164188435357 -9.95126849903714E-09 -2.65013272912492E-08 -9.95126849903714E-09 -2.65013272912491E-08 0.865415971302595 -0.491989557717881 
! Gamma         0.587178383918063 24.9209466715602 0.584151817952849 24.9095596602953 
! Port Impedance         50               0                50               0                
0.93625                        0.805088830707095 -0.583633871789778 -2.72591598678348E-08 -2.8427759870616E-08 -2.72591598678348E-08 -2.8427759870616E-08 0.804869766823996 -0.584040209698879 
! Gamma         0.669883996456533 30.2773463757432 0.66605522083598 30.2639226375025 
! Port Impedance         50               0                50               0                
1.1035                         0.735459745746071 -0.667855595093291 -3.50931507749361E-08 -2.96754407196377E-08 -3.50931507749361E-08 -2.96754407196377E-08 0.735158739024531 -0.668324492032495 
! Gamma         0.742419961504869 35.6332984674542 0.737750024280458 35.6179142781615 
! Port Impedance         50               0                50               0                
1.27075                        0.65778828865302 -0.743158935749264 -3.55614884712409E-08 -3.49624744491945E-08 -3.5561488471241E-08 -3.49624744491945E-08 0.657387707219304 -0.743682416516874 
! Gamma         0.811665124161643 40.9849975406809 0.806133097985623 40.9677563147512 
! Port Impedance         50               0                50               0                
1.438                          0.573410639966897 -0.808769630517914 -3.58307486659523E-08 -4.07178510569975E-08 -3.58307486659524E-08 -4.07178510569976E-08 0.572895001328977 -0.809319100879278 
! Gamma         0.877673158328317 46.3302204897509 0.871272885140246 46.3112220589558 
! Port Impedance         50               0                50               0                
1.60525                        0.483618365475917 -0.864240788499739 -3.57477575620573E-08 -4.70665786486326E-08 -3.57477575620573E-08 -4.70665786486327E-08 0.482983443094669 -0.86478483040096 
! Gamma         0.940500101300028 51.6708760971112 0.933232892553851 51.6502042650352 
! Port Impedance         50               0                50               0                
1.7725                         0.389688559990656 -0.909291605138812 -3.50850294483938E-08 -5.41475970521885E-08 -3.50850294483938E-08 -5.41475970521885E-08 0.3889401774962  -0.909800081540542 
! Gamma         1.00047900491766 57.0083368301176 0.9923491598059  56.9860621969099 
! Port Impedance         50               0                50               0                
1.93975                        0.292867443425633 -0.943799142443863 -3.35030775580291E-08 -6.20973617298745E-08 -3.35030775580292E-08 -6.20973617298746E-08 0.292019528494988 -0.944245905226928 
! Gamma         1.05803119049795 62.3435508788396 1.04904350295146 62.3197337869802 
! Port Impedance         50               0                50               0                
2.107                          0.194352357769533 -0.967786422822881 -3.04972430007564E-08 -7.10066477341262E-08 -3.04972430007565E-08 -7.10066477341262E-08 0.193424774046923 -0.968150932823574 
! Gamma         1.11356846623397 67.6771550078688 1.10372706340245 67.651848086246  
! Port Impedance         50               0                50               0                
2.27425                        0.095275649944929 -0.981406791318408 -2.53349141985357E-08 -8.08224024595848E-08 -2.53349141985357E-08 -8.08224024595848E-08 0.0942920825569389 -0.981674912648324 
! Gamma         1.16745027536903 73.0095678997009 1.15675824825433 72.9828180532467 
! Port Impedance         50               0                50               0                
2.4415                         -0.00330780247510844 -0.984925785693437 -1.70185070512932E-08 -9.11485908696524E-08 -1.70185070512932E-08 -9.11485908696525E-08 -0.00432175929277747 -0.985089970085854 
! Gamma         1.21997087773485 78.3410605016859 1.20843033037495 78.3129103743241 
! Port Impedance         50               0                50               0                
2.60875                        -0.100428822877975 -0.978701954632204 -4.38608798797284E-09 -1.0090208802157E-07 -4.38608798797284E-09 -1.0090208802157E-07 -0.101447302377493 -0.978760993562665 
! Gamma         1.27136137549588 83.6718063349071 1.25897365986286 83.6422953405719 
! Port Impedance         50               0                50               0                
2.776                          -0.195208012228696 -0.963167877977713 1.3407839807252E-08 -1.07893604601556E-07 1.3407839807252E-08 -1.07893604601556E-07 -0.196206210575709 -0.963126367908305 
! Gamma         1.32179804227962 89.0019163027146 1.30856404578682 88.9710813296375 
! Port Impedance         50               0                50               0                
2.94325                        -0.286856132814982 -0.938812347799649 3.57790516540141E-08 -1.08794615162484E-07 3.57790516540141E-08 -1.08794615162484E-07 -0.287811350057493 -0.938679984563098 
! Gamma         1.37141247704121 94.331462213748  1.3573328935407  94.2993380943675 
! Port Impedance         50               0                50               0                
3.1105                         -0.374671437846081 -0.906164372213504 5.9409635597303E-08 -1.00439578552929E-07 5.94096355973029E-08 -1.00439578552929E-07 -0.375563851704674 -0.905955163412064 
! Gamma         1.42030142012267 99.6604923675314 1.40537697359067 99.6271121869514 
! Port Impedance         50               0                50               0                
3.27775                        -0.458034639351928 -0.86577940475069 7.86612074034844E-08 -8.25619938071216E-08 7.86612074034843E-08 -8.25619938071217E-08 -0.458847850711278 -0.865510864336694 
! Gamma         1.46853532223159 104.989041676485 1.45276693391114 104.954436973647 
! Port Impedance         50               0                50               0                
3.445                          -0.536402186235507 -0.818227993102467 8.89225287304415E-08 -5.91644450911801E-08 8.89225287304415E-08 -5.91644450911802E-08 -0.537123579858247 -0.817920360694453 
! Gamma         1.51616540092733 110.317138083415 1.49955430197379 110.28133898357  
! Port Impedance         50               0                50               0                
3.61225                        -0.609298461776446 -0.764086883032637 8.96703178528127E-08 -3.59487712589665E-08 8.96703178528127E-08 -3.59487712589667E-08 -0.609919425331628 -0.763762392608095 
! Gamma         1.56322922779057 115.644806498504 1.54577702468849 115.607841803594 
! Port Impedance         50               0                50               0                
3.7795                         -0.676307427375297 -0.703932501659168 8.36735036557056E-08 -1.67115866024757E-08 8.36735036557057E-08 -1.67115866024758E-08 -0.67682346826411 -0.703614710333768 
! Gamma         1.60975502003177 120.972071096702 1.59146372186652 120.933968351413 
! Port Impedance         50               0                50               0                
3.94675                        -0.73706415180906 -0.638336672183611 7.4257880058928E-08 -2.45683422707775E-09 7.4257880058928E-08 -2.4568342270779E-09 -0.73747494638357 -0.638049849626989 
! Gamma         1.65576485009528 126.298956548418 1.63663686675905 126.25974209341  
! Port Impedance         50               0                50               0                
4.114                          -0.791246582606166 -0.567864371637627 6.37398228462371E-08 7.4585112426683E-09 6.37398228462371E-08 7.45851124266827E-09 -0.79155598813474 -0.567632943338554 
! Gamma         1.70127698297806 131.625488571295 1.68131510249963 131.585187590693 
! Port Impedance         50               0                50               0                
4.28125                        -0.83856784451136 -0.49307332644359 5.32901506286373E-08 1.41565149423273E-08 5.32901506286374E-08 1.41565149423273E-08 -0.838783902448534 -0.492921357251973 
! Gamma         1.74630752834596 136.951694063724 1.72551488028471 136.910330631015 
! Port Impedance         50               0                50               0                
4.4485                         -0.878769292943906 -0.414515240112076 4.32983563667844E-08 1.86882337013459E-08 4.32983563667845E-08 1.86882337013458E-08 -0.878904253495561 -0.414465933440279 
! Gamma         1.79087156577179 142.277600993789 1.7692515762993  142.235198118264 
! Port Impedance         50               0                50               0                
4.61575                        -0.911614509678655 -0.332738456243679 3.36983986749622E-08 2.19141155166801E-08 3.36983986749623E-08 2.191411551668E-08 -0.911684908629019 -0.332813620016769 
! Gamma         1.83498387269288 147.603238157903 1.81254021574862 147.559817832535 
! Port Impedance         50               0                50               0                
4.783                          -0.936884404503998 -0.248291871045042 2.41372051437772E-08 2.45853693217236E-08 2.41372051437773E-08 2.45853693217235E-08 -0.93691120595528 -0.248511252130511 
! Gamma         1.87865935871055 152.928634882898 1.85539590652994 152.884218133738 
! Port Impedance         50               0                50               0                
4.95025                        -0.954373580215062 -0.161729913610358 1.40079743268617E-08 2.75601522199771E-08 1.40079743268618E-08 2.7560152219977E-08 -0.954382313833016 -0.16211023196483 
! Gamma         1.92191328758656 158.253820717819 1.89783406298224 158.208427654569 
! Port Impedance         50               0                50               0                
5.1175                         -0.96388812496378 -0.0736183929106402 2.41245188633594E-09 3.22974188829299E-08 2.41245188633602E-09 3.22974188829298E-08 -0.963908714516165 -0.074171901964363 
! Gamma         1.96476134982122 163.578825143113 1.93987048184986 163.532475010287 
! Port Impedance         50               0                50               0                
5.28475                        -0.965244989979238 0.0154590653950226 -1.15861379005444E-08 4.22222130783615E-08 -1.15861379005443E-08 4.22222130783614E-08 -0.965310623250568 0.0147263293492147 
! Gamma         2.00721963371658 168.903677312516 1.98152131776906 168.85638854051  
! Port Impedance         50               0                50               0                
5.452                          -0.958272968220897 0.104894440160633 -2.55248479843235E-08 6.62772663444496E-08 -2.55248479843235E-08 6.62772663444494E-08 -0.958417452930659 0.10398356859853 
! Gamma         2.04930453088007 174.228405834771 2.02280299377263 174.180196090175 
! Port Impedance         50               0                50               0                
5.61925                        -0.942814609215649 0.194049085549337 -1.32273583092329E-08 1.13824345919488E-07 -1.32273583092328E-08 1.13824345919488E-07 -0.94306944657411 0.192966262509555 
! Gamma         2.09103260272269 179.553038597081 2.06373207301973 179.503924831621 
! Port Impedance         50               0                50               0                
5.7865                         -0.918727165632336 0.282246537013094 5.09585620831442E-08 1.2385885795002E-07 5.09585620831443E-08 1.2385885795002E-07 -0.919123085962901 0.280998305387546 
! Gamma         2.13242042719665 184.877602628981 2.10432511074172 184.827601126552 
! Port Impedance         50               0                50               0                
5.95375                        -0.885884886767539 0.368757868004399 7.91227037378057E-08 8.39799670121603E-08 7.91227037378057E-08 8.39799670121601E-08 -0.886460208552691 0.367352656646176 
! Gamma         2.17348443939848 190.202124003431 2.14459849985072 190.151250424792 
! Port Impedance         50               0                50               0                
6.121                          -0.844198594862432 0.452783428099479 7.78805759329606E-08 5.65221008279965E-08 7.78805759329605E-08 5.65221008279964E-08 -0.844999101552492 0.451245214016252 
! Gamma         2.21424077539299 195.526627770969 2.18456831944583 195.474897195739 
! Port Impedance         50               0                50               0                
6.28825                        -0.793643900825241 0.533458144298798 7.26457618425775E-08 4.11907734986825E-08 7.26457618425774E-08 4.11907734986825E-08 -0.794706939098734 0.531829923059764 
! Gamma         2.25470512540657 200.8511379224   2.22425019229057 200.798564888126 
! Port Impedance         50               0                50               0                
6.4555                         -0.734266736057787 0.609862429354161 6.85483564279515E-08 3.11417587941925E-08 6.85483564279514E-08 3.11417587941925E-08 -0.735614575672439 0.608194734032974 
! Gamma         2.29489260016353 206.17567737551  2.26365915499489 206.122275913615 
! Port Impedance         50               0                50               0                
6.62275                        -0.666190790565504 0.681014470823263 6.59981684034475E-08 2.30009248103861E-08 6.59981684034475E-08 2.30009248103861E-08 -0.667834665762739 0.679359399846241 
! Gamma         2.33481761240872 211.500267981555 2.30280954293004 211.446051650073 
! Port Impedance         50               0                50               0                
6.79                           -0.589640854930423 0.745865262699352 6.46174454269374E-08 1.50347975436983E-08 6.46174454269374E-08 1.50347975436984E-08 -0.591583262834246 0.744276621087482 
! Gamma         2.37449377442309 216.824930547613 2.34171489068659 216.76991246068  
! Port Impedance         50               0                50               0                
6.95725                        -0.504970515023138 0.803304362142941 6.38015651970221E-08 6.1143757307238E-09 6.38015651970221E-08 6.11437573072379E-09 -0.507204462136306 0.801838015584732 
! Gamma         2.41393381147929 222.149684871378 2.38038784803895 222.093877725472 
! Port Impedance         50               0                50               0                
7.1245                         -0.412689993006477 0.852173512756739 6.26321269216292E-08 -4.64352077091077E-09 6.26321269216292E-08 -4.64352077091077E-09 -0.415197262582703 0.850886340209753 
! Gamma         2.45314949060675 227.47454978538  2.41884011081056 227.417965882376 
! Port Impedance         50               0                50               0                
7.29175                        -0.31349379315644 0.891287773377914 5.96169935112494E-08 -1.78209348623009E-08 5.96169935112495E-08 -1.78209348623009E-08 -0.316243388335706 0.890235379462812 
! Gamma         2.49215156366877 232.799543208073 2.45708236567232 232.74219447518  
! Port Impedance         50               0                50               0                
7.459                          -0.208286980182193 0.919465291068509 5.24895358305671E-08 -3.3160180950109E-08 5.2489535830567E-08 -3.3160180950109E-08 -0.211234241257331 0.918698815883236 
! Gamma         2.53094972354148 238.124682199652 2.49512424769662 238.066580206351 
! Port Impedance         50               0                50               0                
7.62625                        -0.0982077878844597 0.935566767626984 3.86683755803849E-08 -4.84920864911128E-08 3.86683755803849E-08 -4.84920864911128E-08 -0.101294475917492 0.935129088727859 
! Gamma         2.56955257208242 243.449983020809 2.53297430938829 243.391138992909 
! Port Impedance         50               0                50               0                
7.7935                         0.0153565930543892 0.938544996286869 1.72994729270801E-08 -5.9078069795296E-08 1.72994729270801E-08 -5.90780697952961E-08 0.0122010174697386 0.938466634202338 
! Gamma         2.60796759855332 248.775461192995 2.57063999989012 248.715886023941 
! Port Impedance         50               0                50               0                
7.96075                        0.130764805226056 0.927503807600622 -8.0314823911821E-09 -5.98206361752966E-08 -8.03148239118207E-09 -5.98206361752965E-08 0.127620539441266 0.927798917712002 
! Gamma         2.64620116719144 254.101131559014 2.60812765308913 254.040835818588 
! Port Impedance         50               0                50               0                
8.128                          0.246130725717792 0.901764379371858 -3.04077147873215E-08 -4.99822770059898E-08 -3.04077147873214E-08 -4.99822770059898E-08 0.243083555032957 0.90242730045241 
! Gamma         2.68425851268909 259.427008343047 2.64544248341332 259.366002283616 
! Port Impedance         50               0                50               0                
8.29525                        0.359351279792723 0.860935201134248 -4.50268253444564E-08 -3.40109182575713E-08 -4.50268253444564E-08 -3.40109182575714E-08 0.356487178514623 0.861938095331619 
! Gamma         2.72214374242759 264.753105209392 2.68258858819282 264.691398769847 
! Port Impedance         50               0                50               0                
8.4625                         0.468155537759388 0.804980218402893 -5.17321076213785E-08 -1.71583402429484E-08 -5.17321076213785E-08 -1.71583402429484E-08 0.465554251408436 0.806272341546354 
! Gamma         2.75985984441018 270.079435319406 2.7195689555556  270.017038126926 
! Port Impedance         50               0                50               0                
8.62975                        0.570176208577025 0.734278122001203 -5.28174009910981E-08 -2.37945626346816E-09 -5.28174009910981E-08 -2.37945626346827E-09 0.567904360771785 0.735787174585202 
! Gamma         2.79740869994128 275.406011386239 2.75638547692808 275.342932756046 
! Port Impedance         50               0                50               0                
8.797                          0.663042077798902 0.649664800085947 -5.06205760179293E-08 9.49257328923256E-09 -5.06205760179293E-08 9.49257328923245E-09 0.661146554698779 0.651300609850856 
! Gamma         2.83479110020212 280.732845727127 2.7930389633115  280.669094660351 
! Port Impedance         50               0                50               0                
8.96425                        0.744486796515612 0.55245106604718 -4.67335147639856E-08 1.86323940875945E-08 -4.67335147639856E-08 1.86323940875944E-08 0.74298928910462 0.554111549243007 
! Gamma         2.8720067659717  286.059950313054 2.82952916460138 285.995535492842 
! Port Impedance         50               0                50               0                
9.1315                         0.812466188527609 0.444409244562765 -4.20833775742939E-08 2.54991100710092E-08 -4.20833775742939E-08 2.54991100710091E-08 0.811359762808762 0.445988223706798 
! Gamma         2.90905436983546 291.387336815689 2.86585479130886 291.322266601704 
! Port Impedance         50               0                50               0                
9.29875                        0.865273572812515 0.327725124801128 -3.71794902950876E-08 3.05451342929008E-08 -3.71794902950876E-08 3.05451342929006E-08 0.864521956144031 0.329121216257852 
! Gamma         2.94593156031029 296.715016651594 2.90201353812693 296.649299072996 
! Port Impedance         50               0                50               0                
9.466                          0.901641212259856 0.204915898794459 -3.23005532963938E-08 3.41395703112844E-08 -3.23005532963938E-08 3.41395703112844E-08 0.901181136600292 0.206041411513236 
! Gamma         2.98263498739362 302.043001023682 2.93800210886182 301.976643770728 
! Port Impedance         50               0                50               0                
9.63325                        0.920816447503188 0.0787193414167238 -2.76041837043723E-08 3.65685532338887E-08 -2.76041837043723E-08 3.65685532338887E-08 0.920562931715993 0.0795080288484011 
! Gamma         3.01916032911529 307.371300960015 2.97381624231922 307.304311374375 
! Port Impedance         50               0                50               0                
9.8005                         0.922603530435902 -0.0480362578175252 -2.31843396095841E-08 3.805476117849E-08 -2.31843396095841E-08 3.805476117849E-08 0.922457508686387 -0.0476236329019841 
! Gamma         3.05550231873479 312.699927349999 3.00945073879743 312.632312413884 
! Port Impedance         50               0                50               0                
9.96775                        0.907366314095964 -0.172568969013252 -1.90994855690261E-08 3.87766044361337E-08 -1.90994855690261E-08 3.87766044361336E-08 0.907223635239287 -0.172541973752764 
! Gamma         3.09165477228271 318.028890978076 3.04489948689442 317.960657302289 
! Port Impedance         50               0                50               0                
10.135                         0.87805614643865 -0.293049334270195 -1.78373682718442E-08 4.18947111978968E-08 -1.78373682718442E-08 4.18947111978968E-08 0.87804644382286 -0.293332961298738 
! Gamma         3.12781361669589 323.358243786764 3.08035605379309 323.289400086213 
! Port Impedance         50               0                50               0                
10.30225                       0.834113259417262 -0.406720192503955 -1.70495602554214E-08 4.61317922829625E-08 -1.70495602554214E-08 4.61317922829625E-08 0.834176744211153 -0.40713058950108 
! Gamma         3.16389079685667 328.68797673744  3.11573345529311 328.618530560465 
! Port Impedance         50               0                50               0                
10.4695                        0.776517957988297 -0.511574465819485 -1.61195980445591E-08 5.10945339438068E-08 -1.61195980445591E-08 5.10945339438068E-08 0.776523977394548 -0.512059299050387 
! Gamma         3.19984863893403 334.018092168241 3.15099448175883 333.94805038207  
! Port Impedance         50               0                50               0                
10.63675                       0.707168775646799 -0.606174549528627 -1.50437650202268E-08 5.71466494014078E-08 -1.5043765020227E-08 5.71466494014078E-08 0.707049475793546 -0.606720651275355 
! Gamma         3.23569063378541 339.348600887922 3.18614259043946 339.277970174798 
! Port Impedance         50               0                50               0                
10.804                         0.628128289777904 -0.689451799410945 -1.37616494149626E-08 6.49122942915497E-08 -1.37616494149628E-08 6.49122942915499E-08 0.627856314888454 -0.690040444976909 
! Gamma         3.27142012312782 344.679513546244 3.22118108917206 344.608300411335 
! Port Impedance         50               0                50               0                
10.97125                       0.541473725358364 -0.760722358840529 -1.20844964426363E-08 7.55438982702198E-08 -1.20844964426366E-08 7.554389827022E-08 0.54104291262422 -0.761326871683932 
! Gamma         3.3070403106461  350.010840635992 3.25611314770362 349.939051414566 
! Port Impedance         50               0                50               0                
11.1385                        0.449207902530737 -0.819668256540936 -9.45465391379107E-09 9.13959703381978E-08 -9.4546539137916E-09 9.1395970338198E-08 0.448624741618389 -0.820259108591699 
! Gamma         3.34255427180274 355.342592495313 3.29094180766277 355.270233359282 
! Port Impedance         50               0                50               0                
11.30575                       0.3531991726494  -0.86629133917395 -3.9571099986328E-09 1.18074124137829E-07 -3.9571099986336E-09 1.1807412413783E-07 0.352478700847519 -0.866840473152585 
! Gamma         3.37796496253575 360.674779310271 3.32566999137883 360.601856274201 
! Port Impedance         50               0                50               0                
11.473                         0.255142033156868 -0.900855347374483 1.35864796417128E-08 1.72449723038024E-07 1.35864796417113E-08 1.72449723038025E-07 0.254305169086599 -0.901338893117213 
! Gamma         3.4132752270025  366.00741111757  3.36030050971553 365.933930044229 
! Port Impedance         50               0                50               0                
11.64025                       0.15653532560646 -0.923825991511365 1.31645031495511E-07 3.19039772207474E-07 1.31645031495507E-07 3.19039772207486E-07 0.155606706050951 -0.924225716672342 
! Gamma         3.44848780450355 371.340497807385 3.39483606906062 371.266464412895 
! Port Impedance         50               0                50               0                
11.8075                        0.0586749763732226 -0.935814742345515 4.69650128498604E-07 -2.40878776580565E-07 4.69650128498613E-07 -2.40878776580586E-07 0.0576810772711458 -0.936118612823097 
! Gamma         3.48360533570036 376.674049126263 3.42927927759059 376.599468984903 
! Port Impedance         50               0                50               0                
11.97475                       -0.0373422050932156 -0.937529449951871 7.52380293876404E-08 -1.68179946612037E-07 7.52380293876367E-08 -1.68179946612038E-07 -0.0383746865064016 -0.937731588352999 
! Gamma         3.51863036822314 382.008074680042 3.46363265091163 381.932953228754 
! Port Impedance         50               0                50               0                
12.142                         -0.130607353650156 -0.929733214861348 2.68131442923568E-08 -9.55210032215147E-08 2.68131442923558E-08 -9.55210032215149E-08 -0.13165285580958 -0.929833478245395 
! Gamma         3.55356536175092 387.342583936773 3.49789861716175 387.266926479396 
! Port Impedance         50               0                50               0                
12.30925                       -0.220385061085344 -0.913211901908483 1.33245990516465E-08 -6.26897095897283E-08 1.33245990516461E-08 -6.26897095897283E-08 -0.221420299126065 -0.913215265526802 
! Gamma         3.58841269263326 392.677586229607 3.53207952164653 392.601397940883 
! Port Impedance         50               0                50               0                
12.4765                        -0.306102193525584 -0.888750368543143 7.78658740542464E-09 -4.44512927013175E-08 7.78658740542443E-09 -4.44512927013174E-08 -0.307107274723557 -0.88866633512935 
! Gamma         3.62317465811264 398.013090759641 3.56617763106944 397.936376688999 
! Port Impedance         50               0                50               0                
12.64375                       -0.387364191615162 -0.857118700687167 5.02260430888602E-09 -3.2933641557861E-08 5.02260430888595E-09 -3.2933641557861E-08 -0.388324629554476 -0.856961337811282 
! Gamma         3.65785348019778 403.349106598686 3.60019513740847 403.27187167385  
! Port Impedance         50               0                50               0                
12.811                         -0.464228698898499 -0.819068584068821 3.46172070660204E-09 -2.50303646214143E-08 3.46172070660202E-09 -2.50303646214143E-08 -0.465148086155036 -0.818862417463243 
! Gamma         3.69245130923064 408.685642691973 3.63413416148308 408.607891722382 
! Port Impedance         50               0                50               0                
12.97825                       -0.528545740905501 -0.76891434942428 2.6796228804353E-09 -1.91139808501294E-08 2.6796228804353E-09 -1.91139808501294E-08 -0.529039839148532 -0.768706156980396 
! Gamma         3.72697022718334 414.022707860756 3.66799675624873 413.944445540845 