! Touchstone file exported from HFSS 2021.2.0
!        File:           D:/20220920 new project/ISC_3rd_design/NewISC_3_with_imtiaz_dim_connector.aedt
!        Generated:      1:09:09 AM  Aug 03, 2023
!        Design:         Thru4
!        Project:        NewISC_3_with_imtiaz_dim_connector
!        Setup:          Setup2
!        Solution:       Sweep
!
! Variables:
!        $_L_pin_on = 0.01nH
!        $_R_pin_on = 1ohm
!        Con_T = 0.012mm
!        Con_W = 0.11534mm
!        DUT = 0mm
!        Gap = 0.71534mm
!        Gap_connector_vias = 1mm
!        Radius = 0.225mm
!        Space = 0.837mm
!        Sub_L = 9.5988mm
!        Sub_T = 0.05mm
!        Sub_W = 13.8408mm
!        Vias_N = 18
!        Vias_gap = 1.01162352941176mm
!        quater_wave_L = 1.2798mm
!
# GHz S RI R 50.000000
! Terminal data exported
! Port[1] = 1
! Port[2] = 2
0.1                            0.00343918120130737 -0.00284435982711784 0.993388175562426 -0.0650889915527872 0.993388175562427 -0.0650889915527872 0.00378765572322626 -0.00264044654874228 
! Gamma         0.22508791882118 3.2902272611597  0.225594946636455 3.28644245636423 
! Port Impedance         50               0                50               0                
0.26725                        0.00279447404437577 -0.00794648666299076 0.978841716199705 -0.172343985619334 0.978841716199705 -0.172343985619334 0.00337761190264688 -0.00787495238113304 
! Gamma         0.298997095598857 8.74892103240501 0.2996487995157  8.73820385755262 
! Port Impedance         50               0                50               0                
0.4345                         0.00146260769330125 -0.0131995210845313 0.952770067901697 -0.276141926065746 0.952770067901698 -0.276141926065747 0.00198342926010553 -0.0132415478765765 
! Gamma         0.395765772030375 14.1647636368076 0.396634886099192 14.1471311177793 
! Port Impedance         50               0                50               0                
0.60175                        -0.000991785421535843 -0.0183968942683331 0.915938124377534 -0.375858674133442 0.915938124377533 -0.375858674133441 -0.000522730265355154 -0.0184790469916127 
! Gamma         0.491739016602597 19.5512093363481 0.492836497668583 19.5265654035828 
! Port Impedance         50               0                50               0                
0.769                          -0.0046155923524282 -0.0228979994118982 0.868913794431879 -0.470567123337371 0.868913794431879 -0.470567123337371 -0.00415571315604535 -0.023044188251064 
! Gamma         0.58132915764888 24.9210517141429 0.582629989845382 24.8893195188391 
! Port Impedance         50               0                50               0                
0.93625                        -0.00903494320750539 -0.0262335174648357 0.812427717443055 -0.559398780157073 0.812427717443055 -0.559398780157073 -0.00859893655844258 -0.026449650786856 
! Gamma         0.662405626767577 30.2792028540045 0.663883576816435 30.2403284962647 
! Port Impedance         50               0                50               0                
1.1035                         -0.0138284088258179 -0.0282460835801916 0.747116729016492 -0.641631189456806 0.747116729016492 -0.641631189456805 -0.0134831084541013 -0.0284919444016562 
! Gamma         0.735048145030328 35.6255183725577 0.736710191811223 35.5794692895027 
! Port Impedance         50               0                50               0                
1.27075                        -0.0185287275824 -0.0287539998125954 0.673696845209545 -0.716287645533826 0.673696845209545 -0.716287645533825 -0.018253834520509 -0.0290209240625497 
! Gamma         0.801991816970238 40.970839851217  0.803788216834007 40.9175898918173 
! Port Impedance         50               0                50               0                
1.438                          -0.0226476893010539 -0.0278416843293888 0.593049261618131 -0.78262362755499 0.593049261618132 -0.78262362755499 -0.0224090209775666 -0.0281273949413702 
! Gamma         0.864703473738448 46.3158847677899 0.866595934024691 46.2554179560286 
! Port Impedance         50               0                50               0                
1.60525                        -0.0257893865412973 -0.0257226103974339 0.50605841183768 -0.839994331932689 0.506058411837681 -0.83999433193269 -0.0255777386469861 -0.0260305604158958 
! Gamma         0.9245766107903  51.6594954442457 0.9265464007079  51.5918030434101 
! Port Impedance         50               0                50               0                
1.7725                         -0.0276261819460022 -0.0226924178261198 0.413665467498401 -0.887825303796169 0.413665467498401 -0.887825303796169 -0.0274449801342238 -0.0230219834861823 
! Gamma         0.982304108106555 57.0013054158096 0.984340590354093 56.9263812884289 
! Port Impedance         50               0                50               0                
1.93975                        -0.0279082801381914 -0.0191169603138324 0.316866461082335 -0.925624181806122 0.316866461082335 -0.925624181806122 -0.0277647497022824 -0.0194618183862443 
! Gamma         1.0382693560273  62.3413028658964 1.04036524712829 62.2591418020679 
! Port Impedance         50               0                50               0                
2.107                          -0.0264763311138925 -0.0154180314439088 0.216706310173107 -0.952989671256525 0.216706310173107 -0.952989671256525 -0.0263763945683799 -0.0157679065517447 
! Gamma         1.09271562230967 67.6796254409206 1.09486498446988 67.590222633193  
! Port Impedance         50               0                50               0                
2.27425                        -0.0232734771144395 -0.0120548784391468 0.114271610302946 -0.969618168740501 0.114271610302946 -0.9696181687405 -0.0232195727641401 -0.0123981848492075 
! Gamma         1.14581934606098 73.0164612445046 1.14801676079807 72.9198121729308 
! Port Impedance         50               0                50               0                
2.4415                         -0.0183542419157754 -0.00950169765098523 0.0106834057440761 -0.97530926962798 0.0106834057440756 -0.97530926962798 -0.0183450990189748 -0.00982788191103328 
! Gamma         1.19772140153066 78.3520020643341 1.19996166640946 78.2481025026658 
! Port Impedance         50               0                50               0                
2.60875                        -0.011888558326988 -0.00822216964584105 -0.0929100236618943 -0.969971311444744 -0.0929100236618944 -0.969971311444744 -0.0119200840470994 -0.00852327351565205 
! Gamma         1.24854024761175 83.6864231073986 1.25081829899295 83.575269145481  
! Port Impedance         50               0                50               0                
2.776                          -0.00415989608413611 -0.0086424436316777 -0.195341022076352 -0.953627646865725 -0.195341022076352 -0.953627646865724 -0.00422652669253057 -0.00891379833054393 
! Gamma         1.29837758602985 89.0198761454833 1.30068851040819 88.9014641968162 
! Port Impedance         50               0                50               0                
2.94325                        0.00444305103791306 -0.0111241367745278 -0.295432039446625 -0.926423743442187 -0.295432039446625 -0.926423743442186 0.00434698345258104 -0.0113643012565358 
! Gamma         1.34732114580752 94.3524891772739 1.34966021692774 94.2268159682725 
! Port Impedance         50               0                50               0                
3.1105                         0.0134412439324464 -0.0159390002659481 -0.392007708037335 -0.88863460423255 -0.392007708037335 -0.88863460423255 0.0133204070143269 -0.0161491445967002 
! Gamma         1.39544649666491 99.684368957045  1.39780921144258 99.5514315030409 
! Port Impedance         50               0                50               0                
3.27775                        0.0222864574572022 -0.0232469503470376 -0.483910221884079 -0.840671482603373 -0.483910221884079 -0.840671482603372 0.022143819491622 -0.0234299076133236 
! Gamma         1.44281859443121 105.015604493055 1.44520069789156 104.875400067235 
! Port Impedance         50               0                50               0                
3.445                          0.03038798591513 -0.0330791444334782 -0.570018256776912 -0.783086499059814 -0.570018256776911 -0.783086499059813 0.0302245656623927 -0.0332383406485423 
! Gamma         1.48949325937499 110.346270576596 1.4918907567729  110.198796676829 
! Port Impedance         50               0                50               0                
3.61225                        0.0371436666432801 -0.0453276488272161 -0.64926905990263 -0.716573621659618 -0.64926905990263 -0.716573621659618 0.0369587061931117 -0.0454660883084068 
! Gamma         1.53551860041445 115.676430922109 1.53792775805293 115.521685238925 
! Port Impedance         50               0                50               0                
3.7795                         0.0419734933767389 -0.0597429421549358 -0.720682682082075 -0.641964590327277 -0.720682682082075 -0.641964590327277 0.0417649827358152 -0.0598623869714631 
! Gamma         1.5809363451     121.00614077339  1.58335368247487 120.84412116094  
! Port Impedance         50               0                50               0                
3.94675                        0.0443536609502978 -0.075939997806303 -0.783386732881363 -0.560218762640963 -0.783386732881364 -0.560218762640962 0.0441191160134649 -0.0760404411353516 
! Gamma         1.62578303468399 126.335448969061 1.62820531065271 126.16615341985  
! Port Impedance         50               0                50               0                
4.114                          0.0438486217959457 -0.0934130044714275 -0.83663962905443 -0.472406499963552 -0.83663962905443 -0.472406499963552 0.0435860025289031 -0.0934925040066839 
! Gamma         1.67009105917142 131.664399523429 1.67251525448409 131.487826146958 
! Port Impedance         50               0                50               0                
4.28125                        0.0401387355378398 -0.111557988141331 -0.87985018263097 -0.379686508421975 -0.87985018263097 -0.379686508421974 0.0398473801337312 -0.111612900231941 
! Gamma         1.71388952418584 136.993032801582 1.7163128222269  136.809179806648 
! Port Impedance         50               0                50               0                
4.4485                         0.0330414097345072 -0.129701814500551 -0.912591593118033 -0.283278362581509 -0.912591593118033 -0.283278362581509 0.0327228393191791 -0.129727450048076 
! Gamma         1.75720495472861 142.321386369764 1.75962472183748 142.130252049978 
! Port Impedance         50               0                50               0                
4.61575                        0.022524249576254 -0.147135427591563 -0.934608455737107 -0.184432113837802 -0.934608455737107 -0.184432113837803 0.022182648528376 -0.147127116502516 
! Gamma         1.80006184953752 147.649495594619 1.80247561586218 147.451078316644 
! Port Impedance         50               0                50               0                
4.783                          0.00870956309366988 -0.16314885935867 -0.945816186974592 -0.084397281050659 -0.945816186974592 -0.0843972810506588 0.00835166368458598 -0.163103302308439 
! Gamma         1.8424831043884  152.977394053791 1.8448885458928  152.771692247801 
! Port Impedance         50               0                50               0                
4.95025                        -0.00812956984342844 -0.177065609503534 -0.946293153224108 0.0156064527536245 -0.946293153224108 0.0156064527536245 -0.0084954725214702 -0.176982128480887 
! Gamma         1.88449032436407 158.305113808677 1.88688524635608 158.092125960585 
! Port Impedance         50               0                50               0                
5.1175                         -0.027580794604509 -0.188274400769405 -0.936266575464781 0.114414877428057 -0.936266575464782 0.114414877428057 -0.0279466234401945 -0.188155343603425 
! Gamma         1.92610404482377 163.632685579288 1.92848636718318 163.412410224362 
! Port Impedance         50               0                50               0                
5.28475                        -0.0491103578378255 -0.196256806585465 -0.916093748427924 0.210939912358124 -0.916093748427924 0.210939912358125 -0.0494699175431695 -0.196106477930227 
! Gamma         1.96734387932725 168.960138851866 1.96971162348156 168.732574569397 
! Port Impedance         50               0                50               0                
5.452                          -0.0720859838727731 -0.200609555311248 -0.886240159017709 0.304184576822581 -0.88624015901771 0.304184576822582 -0.0724351339685008 -0.200432247096551 
! Gamma         2.00822861067415 174.287501942164 2.01057988828066 174.052647350946 
! Port Impedance         50               0                50               0                
5.61925                        -0.0958029758628788 -0.201060715273492 -0.847256025227121 0.393251867899928 -0.847256025227121 0.393251867899928 -0.0961381588365777 -0.200859601432573 
! Gamma         2.04877623889593 179.614802031171 2.0511092421319  179.37265578557  
! Port Impedance         50               0                50               0                
5.7865                         -0.119511645672488 -0.19747987545105 -0.799752934882621 0.477347434444533 -0.79975293488262 0.477347434444533 -0.119828364660123 -0.19725768873864 
! Gamma         2.08900399773168 184.942065185188 2.09131699106123 184.692625971654 
! Port Impedance         50               0                50               0                
5.95375                        -0.1424449024941 -0.189883136422825 -0.744382274344118 0.55577653775404 -0.744382274344117 0.55577653775404 -0.142737509336635 -0.189643672490577 
! Gamma         2.12892834897253 190.269316368522 2.13121966224287 190.012582902426 
! Port Impedance         50               0                50               0                
6.121                          -0.163845582320374 -0.178433506970982 -0.681816721930412 0.627936247601168 -0.681816721930412 0.627936247601168 -0.164108209311247 -0.178182647103573 
! Gamma         2.16856496214655 195.596579454258 2.17083298486196 195.332550476964 
! Port Impedance         50               0                50               0                
6.28825                        -0.182993148954338 -0.163436867145024 -0.612735699045332 0.693303880714166 -0.612735699045333 0.693303880714166 -0.183220938785574 -0.16318271348697 
! Gamma         2.20792868536431 200.923877236559 2.21017186198969 200.65255151267  
! Port Impedance         50               0                50               0                
6.4555                         -0.199229193908083 -0.145333623492241 -0.537815559316898 0.751422721882041 -0.537815559316897 0.75142272188204 -0.199419268340374 -0.14508600291699 
! Gamma         2.2470335117544  206.251231446461 2.24925033790879 205.972607761204 
! Port Impedance         50               0                50               0                
6.62275                        -0.211981137745678 -0.124686343351199 -0.457725210156394 0.8018862914006  -0.457725210156394 0.8018862914006  -0.212133155421596 -0.124456035160977 
! Gamma         2.28589254477129 211.578662772107 2.28808156418302 211.292739928816 
! Port Impedance         50               0                50               0                
6.79                           -0.220783651428792 -0.102163757328452 -0.373127608510438 0.844322732310112 -0.373127608510437 0.84432273231011 -0.220900004523923 -0.101961678298158 
! Gamma         2.32451796472925 216.906190883663 2.32667776683717 216.612967701354 
! Port Impedance         50               0                50               0                
6.95725                        -0.225297450805976 -0.0785215179173358 -0.284687132733549 0.878381143013868 -0.28468713273355 0.878381143013868 -0.225383197667594 -0.0783579804403386 
! Gamma         2.36292099817763 222.233834462701 2.36505021627596 221.933309773724 
! Port Impedance         50               0                50               0                
7.1245                         -0.225325204256772 -0.0545800215549513 -0.193082251334927 0.903721782893736 -0.193082251334927 0.903721782893735 -0.225387827205415 -0.0544641105494452 
! Gamma         2.40111189115554 227.561611235564 2.40320920099251 227.253783883322 
! Port Impedance         50               0                50               0                
7.29175                        -0.220824288272006 -0.0311994784764811 -0.0990222525811118 0.920011971894985 -0.0990222525811121 0.920011971894985 -0.220873346164346 -0.0311385554077028 
! Gamma         2.43909988692103 232.889538010056 2.44116400567358 232.574406846799 
! Port Impedance         50               0                50               0                
7.459                          -0.211916000010914 -0.00925231124801039 -0.00326614654602657 0.926929155853852 -0.00326614654602686 0.926929155853851 -0.211962725185561 -0.00925163334279027 
! Gamma         2.47689320841677 238.217630714774 2.47892289397478 237.895194599462 
! Port Impedance         50               0                50               0                
7.62625                        -0.198890599885126 0.010407038267897 0.0933587051777233 0.924172009815067 0.0933587051777234 0.924172009815067 -0.198947469620166 0.0103446059959797 
! Gamma         2.51449904549042 243.545904440358 2.5164930959937  243.216162236595 
! Port Impedance         50               0                50               0                
7.7935                         -0.182207276174736 0.0269746357095668 0.189941037334899 0.911479624907328 0.189941037334899 0.911479624907328 -0.182287569702668 0.0268488403991909 
! Gamma         2.55192354671416 248.874373481996 2.5538808002944  248.537324056042 
! Port Impedance         50               0                50               0                
7.96075                        -0.162487912248023 0.0397312659383002 0.285476074573105 0.888657834258968 0.285476074573105 0.888657834258968 -0.162605247169408 0.0395446377542725 
! Gamma         2.58917181553012 254.203051382573 2.59109115021777 253.858693601431 
! Port Impedance         50               0                50               0                
8.128                          -0.140503529350706 0.0480771172180649 0.37886441862555 0.855610696079524 0.378864418625551 0.855610696079525 -0.140671359035128 0.047835096405906 
! Gamma         2.62624791037302 259.531950975931 2.62812824413586 259.180283705509 
! Port Impedance         50               0                50               0                
8.29525                        -0.117152578314254 0.0515651140119458 0.468921237339427 0.812374238083957 0.468921237339429 0.812374238083958 -0.117383628395182 0.0512761197978295 
! Gamma         2.66315484837917 264.861084429756 2.66499513926502 264.502106533118 
! Port Impedance         50               0                50               0                
8.4625                         -0.0934308807042711 0.04993060083985 0.554396459194247 0.759148978259576 0.554396459194249 0.759148978259576 -0.0937365112201255 0.0496060068763407 
! Gamma         2.69989461227257 270.190463287735 2.7016938586336  269.824173623424 
! Port Impedance         50               0                50               0                
8.62975                        -0.0703938709380588 0.0431149272001132 0.634005379670697 0.696327645858785 0.6340053796707  0.696327645858786 -0.0707833718481969 0.0427688924652001 
! Gamma         2.73646816001836 275.520098510636 2.73822540079871 275.146495931083 
! Port Impedance         50               0                50               0                
8.797                          -0.0491126524973782 0.031280748493023 0.706467867534027 0.624514997146066 0.70646786753403 0.624514997146065 -0.0495925112328036 0.0309298490991814 
! Gamma         2.77287543684623 280.85000051608  2.7745897519181  280.469083866097 
! Port Impedance         50               0                50               0                
8.96425                        -0.0306260054186508 0.014817478487982 0.770553509718241 0.544537541230747 0.770553509718244 0.544537541230746 -0.0311992186680536 0.0144801001444002 
! Gamma         2.80911538926691 286.180179216811 2.81078589980328 285.791947332158 
! Port Impedance         50               0                50               0                
9.1315                         -0.0158907076869319 -0.00566391910734754 0.825129733889138 0.457442076894787 0.825129733889142 0.457442076894786 -0.0165562356852084 -0.00596843513331785 
! Gamma         2.84518598073092 291.510644057312 2.84681184960544 291.115095763352 
! Port Impedance         50               0                50               0                
9.29875                        -0.0057323963008963 -0.029347024268984 0.869210155824586 0.364482832964153 0.869210155824592 0.364482832964151 -0.00648486625655643 -0.02959944170882 
! Gamma         2.88108420860803 296.841404048692 2.88266464081476 296.438538159114 
! Port Impedance         50               0                50               0                
9.466                          -0.000798950373097171 -0.0552369400032323 0.902000827856893 0.267097447056562 0.902000827856896 0.26709744705656 -0.00162869948259235 -0.0554193037746736 
! Gamma         2.91680612219642 302.172467801764 2.91834036528363 301.76228311739  
! Port Impedance         50               0                50               0                
9.63325                        -0.00151839072718854 -0.0821982466622298 0.922942302620399 0.166872026191956 0.922942302620402 0.166872026191952 -0.00241189782683596 -0.082295042393441 
! Gamma         2.95234684150104 307.503843558312 2.95383418601476 307.086338865971 
! Port Impedance         50               0                50               0                
9.8005                         -0.00806380615186972 -0.109004074920863 0.931745166082429 0.0654954433406196 0.931745166082428 0.0654954433406189 -0.00900450101990283 -0.109003220080263 
! Gamma         2.98770057655062 312.835539220525 2.98914035648468 312.410713292004 
! Port Impedance         50               0                50               0                
9.96775                        -0.0203287521672985 -0.134395958411253 0.928415962851024 -0.0352966462737952 0.928415962851023 -0.0352966462737943 -0.0212981253334233 -0.134289483682025 
! Gamma         3.02286064705121 318.167562378642 3.02425224030126 317.735413969698 
! Port Impedance         50               0                50               0                
10.135                         -0.0376374420251862 -0.156881409004087 0.91474131730682 -0.134093522960049 0.914741317306819 -0.13409352296005 -0.0386404735642463 -0.1566674074004 
! Gamma         3.05806687671811 323.500042524169 3.0594089610473  323.060570880429 
! Port Impedance         50               0                50               0                
10.30225                       -0.0593938320072073 -0.175505430632785 0.890680676765406 -0.229710608289244 0.890680676765406 -0.229710608289245 -0.0604219642999903 -0.175175963241939 
! Gamma         3.09320658205184 328.832929968674 3.09449821270618 328.386134096541 
! Port Impedance         50               0                50               0                
10.4695                        -0.084675279093996 -0.18955611138427 0.856720616650664 -0.320960695735792 0.856720616650663 -0.320960695735793 -0.0857136650282531 -0.18910388281247 
! Gamma         3.1282323099848  334.166210008874 3.12947271196452 333.712088815661 
! Port Impedance         50               0                50               0                
10.63675                       -0.112424026852068 -0.198521918837577 0.813749982658125 -0.406888966904162 0.813749982658125 -0.406888966904163 -0.113457073168316 -0.197941633118254 
! Gamma         3.16314739162201 339.499893337884 3.16433580418741 339.038445736751 
! Port Impedance         50               0                50               0                
10.804                         -0.141562878258352 -0.202120347683717 0.762704493096847 -0.486740679995574 0.762704493096847 -0.486740679995574 -0.142574674565761 -0.201408777948052 
! Gamma         3.19795503179835 344.833990472786 3.19909070781791 344.365215382799 
! Port Impedance         50               0                50               0                
10.97125                       -0.171030204285907 -0.200272246198499 0.704526782176563 -0.55993975465741 0.704526782176563 -0.55993975465741 -0.172004949477417 -0.199428176047741 
! Gamma         3.23265831573007 350.168511760934 3.23374052108505 349.692408107271 
! Port Impedance         50               0                50               0                
11.1385                        -0.199803156526593 -0.193080506738276 0.640137290609607 -0.626065422861173 0.640137290609607 -0.626065422861173 -0.200725483323423 -0.192104537967482 
! Gamma         3.26726021519091 355.503467385832 3.26828822822887 355.020034100097 
! Port Impedance         50               0                50               0                
11.30575                       -0.226916393092353 -0.180814095859518 0.570412025512166 -0.684828271805625 0.570412025512166 -0.684828271805624 -0.227771489344656 -0.179708380250383 
! Gamma         3.30176359426013 360.838867372613 3.30273670529081 360.348103393213 
! Port Impedance         50               0                50               0                
11.473                         -0.251480756749673 -0.163894871236067 0.496165404315827 -0.736044681546793 0.496165404315828 -0.736044681546793 -0.252254230835702 -0.162662877167711 
! Gamma         3.33617121468263 366.174721593136 3.33708872551073 365.676625865727 
! Port Impedance         50               0                50               0                
11.64025                       -0.272703114679896 -0.142883895585395 0.418138754786341 -0.77960864252034 0.418138754786341 -0.77960864252034 -0.273380640463567 -0.141530333556852 
! Gamma         3.3704857408762  371.51103977076  3.37134696436648 371.005611248702 
! Port Impedance         50               0                50               0                
11.8075                        -0.289906403554584 -0.11846493832533 0.336996332298845 -0.815461337357225 0.336996332298845 -0.815461337357225 -0.290473278971777 -0.116995927045681 
! Gamma         3.40470974461622 376.847831484771 3.40551400428724 376.335069129627 
! Port Impedance         50               0                50               0                
11.97475                       -0.30254809462211 -0.0914243195711303 0.253330636573848 -0.843560604280969 0.253330636573848 -0.843560604280969 -0.302988918595574 -0.0898477803315051 
! Gamma         3.4388457094246  382.185106174535 3.43959233906798 381.665008956577 
! Port Impedance         50               0                50               0                
12.142                         -0.310235407101493 -0.0626274260546864 0.16767764568162 -0.863853675341638 0.16767764568162 -0.863853675341638 -0.310534087047516 -0.0609535734978396 
! Gamma         3.47289603468654 387.522873143364 3.4735843780094  386.995440042095 
! Port Impedance         50               0                50               0                
12.30925                       -0.312736122625152 -0.0329928859762171 0.0805408368198139 -0.876256985047075 0.0805408368198136 -0.876256985047074 -0.312876354064769 -0.0312345771115175 
! Gamma         3.50686303951626 392.861141562133 3.50749244980477 392.326371566821 
! Port Impedance         50               0                50               0                
12.4765                        -0.309984412559913 -0.00346563910665824 -0.00757893250378296 -0.880646249557862 -0.00757893250378346 -0.880646249557863 -0.30995063810245 -0.00163828354769226 
! Gamma         3.54074896639074 398.199920472663 3.54131880619318 397.657812582883 
! Port Impedance         50               0                50               0                
12.64375                       -0.302081498757135 0.0250098136231775 -0.0961519476207906 -0.876858543090574 -0.0961519476207913 -0.876858543090573 -0.301860191888871 0.0268890759892771 
! Gamma         3.57455598456837 403.539218790881 3.57506562539639 402.989772017067 
! Port Impedance         50               0                50               0                
12.811                         -0.289291109018164 0.0515146733648562 -0.184591328510756 -0.864706114218243 -0.184591328510757 -0.864706114218243 -0.288872065324735 0.0534287414531833 
! Gamma         3.60828619330811 408.879045309789 3.60873501535502 408.322258673794 
! Port Impedance         50               0                50               0                
12.97825                       -0.272029356850171 0.0751781318089477 -0.272232238776506 -0.843999741321762 -0.272232238776507 -0.843999741321762 -0.27140649612422 0.0771126012697673 
! Gamma         3.64194162490344 414.219408702236 3.64232901677851 413.655281237903 
! Port Impedance         50               0                50               0                
13.1455                        -0.250847577323373 0.0951945563690042 -0.358322002454755 -0.814577977027196 -0.358322002454756 -0.814577977027197 -0.250018519544331 0.0971402445028338 
! Gamma         3.67552424754369 419.560317523528 3.67584960602163 418.988848277265 
! Port Impedance         50               0                50               0                
13.31275                       -0.2264050614054 0.110832093537876 -0.442023561934869 -0.776337508797084 -0.442023561934869 -0.776337508797085 -0.225368564964935 0.11278330972685 